
                                 *****************
                                 * O   R   C   A *
                                 *****************

                                            #,                                       
                                            ###                                      
                                            ####                                     
                                            #####                                    
                                            ######                                   
                                           ########,                                 
                                     ,,################,,,,,                         
                               ,,#################################,,                 
                          ,,##########################################,,             
                       ,#########################################, ''#####,          
                    ,#############################################,,   '####,        
                  ,##################################################,,,,####,       
                ,###########''''           ''''###############################       
              ,#####''   ,,,,##########,,,,          '''####'''          '####       
            ,##' ,,,,###########################,,,                        '##       
           ' ,,###''''                  '''############,,,                           
         ,,##''                                '''############,,,,        ,,,,,,###''
      ,#''                                            '''#######################'''  
     '                                                          ''''####''''         
             ,#######,   #######,   ,#######,      ##                                
            ,#'     '#,  ##    ##  ,#'     '#,    #''#        ######   ,####,        
            ##       ##  ##   ,#'  ##            #'  '#       #        #'  '#        
            ##       ##  #######   ##           ,######,      #####,   #    #        
            '#,     ,#'  ##    ##  '#,     ,#' ,#      #,         ##   #,  ,#        
             '#######'   ##     ##  '#######'  #'      '#     #####' # '####'        



                  #######################################################
                  #                        -***-                        #
                  #          Department of theory and spectroscopy      #
                  #    Directorship and core code : Frank Neese         #
                  #        Max Planck Institute fuer Kohlenforschung    #
                  #                Kaiser Wilhelm Platz 1               #
                  #                 D-45470 Muelheim/Ruhr               #
                  #                      Germany                        #
                  #                                                     #
                  #                  All rights reserved                #
                  #                        -***-                        #
                  #######################################################


                         Program Version 5.0.4 -  RELEASE  -


 With contributions from (in alphabetic order):
   Daniel Aravena         : Magnetic Suceptibility
   Michael Atanasov       : Ab Initio Ligand Field Theory (pilot matlab implementation)
   Alexander A. Auer      : GIAO ZORA, VPT2 properties, NMR spectrum
   Ute Becker             : Parallelization
   Giovanni Bistoni       : ED, misc. LED, open-shell LED, HFLD
   Martin Brehm           : Molecular dynamics
   Dmytro Bykov           : SCF Hessian
   Vijay G. Chilkuri      : MRCI spin determinant printing, contributions to CSF-ICE
   Dipayan Datta          : RHF DLPNO-CCSD density
   Achintya Kumar Dutta   : EOM-CC, STEOM-CC
   Dmitry Ganyushin       : Spin-Orbit,Spin-Spin,Magnetic field MRCI
   Miquel Garcia          : C-PCM and meta-GGA Hessian, CC/C-PCM, Gaussian charge scheme
   Yang Guo               : DLPNO-NEVPT2, F12-NEVPT2, CIM, IAO-localization
   Andreas Hansen         : Spin unrestricted coupled pair/coupled cluster methods
   Benjamin Helmich-Paris : MC-RPA, TRAH-SCF, COSX integrals
   Lee Huntington         : MR-EOM, pCC
   Robert Izsak           : Overlap fitted RIJCOSX, COSX-SCS-MP3, EOM
   Marcus Kettner         : VPT2
   Christian Kollmar      : KDIIS, OOCD, Brueckner-CCSD(T), CCSD density, CASPT2, CASPT2-K
   Simone Kossmann        : Meta GGA functionals, TD-DFT gradient, OOMP2, MP2 Hessian
   Martin Krupicka        : Initial AUTO-CI
   Lucas Lang             : DCDCAS
   Marvin Lechner         : AUTO-CI (C++ implementation), FIC-MRCC
   Dagmar Lenk            : GEPOL surface, SMD
   Dimitrios Liakos       : Extrapolation schemes; Compound Job, initial MDCI parallelization
   Dimitrios Manganas     : Further ROCIS development; embedding schemes
   Dimitrios Pantazis     : SARC Basis sets
   Anastasios Papadopoulos: AUTO-CI, single reference methods and gradients
   Taras Petrenko         : DFT Hessian,TD-DFT gradient, ASA, ECA, R-Raman, ABS, FL, XAS/XES, NRVS
   Peter Pinski           : DLPNO-MP2, DLPNO-MP2 Gradient
   Christoph Reimann      : Effective Core Potentials
   Marius Retegan         : Local ZFS, SOC
   Christoph Riplinger    : Optimizer, TS searches, QM/MM, DLPNO-CCSD(T), (RO)-DLPNO pert. Triples
   Tobias Risthaus        : Range-separated hybrids, TD-DFT gradient, RPA, STAB
   Michael Roemelt        : Original ROCIS implementation
   Masaaki Saitow         : Open-shell DLPNO-CCSD energy and density
   Barbara Sandhoefer     : DKH picture change effects
   Avijit Sen             : IP-ROCIS
   Kantharuban Sivalingam : CASSCF convergence, NEVPT2, FIC-MRCI
   Bernardo de Souza      : ESD, SOC TD-DFT
   Georgi Stoychev        : AutoAux, RI-MP2 NMR, DLPNO-MP2 response
   Willem Van den Heuvel  : Paramagnetic NMR
   Boris Wezisla          : Elementary symmetry handling
   Frank Wennmohs         : Technical directorship


 We gratefully acknowledge several colleagues who have allowed us to
 interface, adapt or use parts of their codes:
   Stefan Grimme, W. Hujo, H. Kruse, P. Pracht,  : VdW corrections, initial TS optimization,
                  C. Bannwarth, S. Ehlert          DFT functionals, gCP, sTDA/sTD-DF
   Ed Valeev, F. Pavosevic, A. Kumar             : LibInt (2-el integral package), F12 methods
   Garnet Chan, S. Sharma, J. Yang, R. Olivares  : DMRG
   Ulf Ekstrom                                   : XCFun DFT Library
   Mihaly Kallay                                 : mrcc  (arbitrary order and MRCC methods)
   Jiri Pittner, Ondrej Demel                    : Mk-CCSD
   Frank Weinhold                                : gennbo (NPA and NBO analysis)
   Christopher J. Cramer and Donald G. Truhlar   : smd solvation model
   Lars Goerigk                                  : TD-DFT with DH, B97 family of functionals
   V. Asgeirsson, H. Jonsson                     : NEB implementation
   FAccTs GmbH                                   : IRC, NEB, NEB-TS, DLPNO-Multilevel, CI-OPT
                                                   MM, QMMM, 2- and 3-layer-ONIOM, Crystal-QMMM,
                                                   LR-CPCM, SF, NACMEs, symmetry and pop. for TD-DFT,
                                                   nearIR, NL-DFT gradient (VV10), updates on ESD,
                                                   ML-optimized integration grids
   S Lehtola, MJT Oliveira, MAL Marques          : LibXC Library
   Liviu Ungur et al                             : ANISO software


 Your calculation uses the libint2 library for the computation of 2-el integrals
 For citations please refer to: http://libint.valeyev.net

 Your ORCA version has been built with support for libXC version: 5.1.0
 For citations please refer to: https://tddft.org/programs/libxc/

 This ORCA versions uses:
   CBLAS   interface :  Fast vector & matrix operations
   LAPACKE interface :  Fast linear algebra routines
   SCALAPACK package :  Parallel linear algebra routines
   Shared memory     :  Shared parallel matrices
   BLAS/LAPACK       :  OpenBLAS 0.3.15  USE64BITINT DYNAMIC_ARCH NO_AFFINITY Zen SINGLE_THREADED
        Core in use  :  Zen
   Copyright (c) 2011-2014, The OpenBLAS Project




***************************************
The coordinates will be read from file: porph_B1_B0_-1.xyz
***************************************


================================================================================

----- Orbital basis set information -----
Your calculation utilizes the basis: def2-TZVP
   F. Weigend and R. Ahlrichs, Phys. Chem. Chem. Phys. 7, 3297 (2005).

----- AuxJ basis set information -----
Your calculation utilizes the auxiliary basis: def2/J
   F. Weigend, Phys. Chem. Chem. Phys. 8, 1057 (2006).

================================================================================
                                        WARNINGS
                       Please study these warnings very carefully!
================================================================================


WARNING: Geometry Optimization
  ===> : Switching off AutoStart
         For restart on a previous wavefunction, please use MOREAD

INFO   : the flag for use of the SHARK integral package has been found!

================================================================================
                                       INPUT FILE
================================================================================
NAME = scan.inp
|  1> ! energy freq PBE0 cc-pVDZ RIJCOSX DEF2-TZVP TIGHTOPT 
|  2> 
|  3> %pal
|  4> nprocs 16
|  5> end
|  6> 
|  7> %maxcore 2000
|  8> 
|  9> * xyzfile -1 1 porph_B1_B0_-1.xyz
| 10> 
| 11>                          ****END OF INPUT****
================================================================================

                       *****************************
                       * Geometry Optimization Run *
                       *****************************

Geometry optimization settings:
Update method            Update   .... BFGS
Choice of coordinates    CoordSys .... Z-matrix Internals
Initial Hessian          InHess   .... Almoef's Model

Convergence Tolerances:
Energy Change            TolE     ....  1.0000e-06 Eh
Max. Gradient            TolMAXG  ....  1.0000e-04 Eh/bohr
RMS Gradient             TolRMSG  ....  3.0000e-05 Eh/bohr
Max. Displacement        TolMAXD  ....  1.0000e-03 bohr
RMS Displacement         TolRMSD  ....  6.0000e-04 bohr
Strict Convergence                ....  False
------------------------------------------------------------------------------
                        ORCA OPTIMIZATION COORDINATE SETUP
------------------------------------------------------------------------------

The optimization will be done in new redundant internal coordinates
Making redundant internal coordinates   ...  (new redundants) done
Evaluating the initial hessian          ...  (Almloef) done
Evaluating the coordinates              ...  done
Calculating the B-matrix                .... done
Calculating the G-matrix                .... done
Diagonalizing the G-matrix              .... done
The first mode is                       ....  151
The number of degrees of freedom        ....  105

    -----------------------------------------------------------------
                    Redundant Internal Coordinates


    -----------------------------------------------------------------
         Definition                    Initial Value    Approx d2E/dq
    -----------------------------------------------------------------
      1. B(B   1,B   0)                  1.4548         0.660717   
      2. B(C   2,B   1)                  1.4018         0.693059   
      3. B(C   3,C   2)                  1.4018         0.598346   
      4. B(C   4,C   3)                  1.4548         0.492471   
      5. B(C   5,C   4)                  1.3626         0.690843   
      6. B(C   6,C   5)                  1.4548         0.492471   
      7. B(C   7,C   6)                  1.4018         0.598346   
      8. B(C   8,C   7)                  1.4018         0.598346   
      9. B(C   9,C   8)                  1.4548         0.492471   
     10. B(C  10,B   0)                  1.3626         0.800197   
     11. B(C  11,C  10)                  1.4548         0.492471   
     12. B(C  12,C  11)                  1.4018         0.598346   
     13. B(C  13,C  12)                  1.4018         0.598346   
     14. B(C  14,C  13)                  1.4548         0.492471   
     15. B(C  15,C  14)                  1.3626         0.690843   
     16. B(C  16,C  15)                  1.4548         0.492471   
     17. B(C  17,C  16)                  1.4018         0.598346   
     18. B(C  18,C  17)                  1.4018         0.598346   
     19. B(C  19,C  18)                  1.4548         0.492471   
     20. B(C  19,C   9)                  1.3626         0.690843   
     21. B(H  21,C   9)                  1.0828         0.369775   
     22. B(H  22,C   7)                  1.0868         0.364413   
     23. B(H  23,C   5)                  1.0828         0.369775   
     24. B(H  24,C   4)                  1.0828         0.369775   
     25. B(H  25,C   2)                  1.0868         0.364413   
     26. B(H  26,B   0)                  1.0828         0.428307   
     27. B(H  27,C  10)                  1.0828         0.369775   
     28. B(H  28,C  12)                  1.0868         0.364413   
     29. B(H  29,C  14)                  1.0828         0.369775   
     30. B(H  30,C  15)                  1.0828         0.369775   
     31. B(H  31,C  17)                  1.0868         0.364413   
     32. B(H  32,C  19)                  1.0828         0.369775   
     33. B(N  33,Cu 20)                  2.0700         0.465685   
     34. B(N  33,C  18)                  1.3629         0.618125   
     35. B(N  33,C   8)                  1.3629         0.618125   
     36. B(N  34,Cu 20)                  2.0700         0.465685   
     37. B(N  34,C   6)                  1.3629         0.618125   
     38. B(N  34,C   3)                  1.3629         0.618125   
     39. B(N  35,Cu 20)                  2.0700         0.465685   
     40. B(N  35,C  11)                  1.3629         0.618125   
     41. B(N  35,B   1)                  1.3629         0.715968   
     42. B(N  36,Cu 20)                  2.0700         0.465685   
     43. B(N  36,C  16)                  1.3629         0.618125   
     44. B(N  36,C  13)                  1.3629         0.618125   
     45. A(B   1,B   0,H  26)          125.4459         0.377781   
     46. A(C  10,B   0,H  26)          127.8830         0.387425   
     47. A(B   1,B   0,C  10)          106.6711         0.471956   
     48. A(C   2,B   1,N  35)          124.9744         0.459558   
     49. A(B   0,B   1,N  35)          109.6111         0.459441   
     50. A(B   0,B   1,C   2)          125.4145         0.459697   
     51. A(C   3,C   2,H  25)          116.2566         0.351500   
     52. A(B   1,C   2,C   3)          127.4867         0.443842   
     53. A(B   1,C   2,H  25)          116.2566         0.363316   
     54. A(C   2,C   3,N  34)          124.9744         0.428251   
     55. A(C   4,C   3,N  34)          109.6111         0.413623   
     56. A(C   2,C   3,C   4)          125.4145         0.413916   
     57. A(C   5,C   4,H  24)          127.8830         0.361079   
     58. A(C   3,C   4,H  24)          125.4459         0.341014   
     59. A(C   3,C   4,C   5)          106.6711         0.424661   
     60. A(C   6,C   5,H  23)          125.4459         0.341014   
     61. A(C   4,C   5,C   6)          106.6711         0.424661   
     62. A(C   4,C   5,H  23)          127.8830         0.361079   
     63. A(C   5,C   6,N  34)          109.6111         0.413623   
     64. A(C   7,C   6,N  34)          124.9744         0.428251   
     65. A(C   5,C   6,C   7)          125.4145         0.413916   
     66. A(C   6,C   7,C   8)          127.4867         0.428557   
     67. A(C   6,C   7,H  22)          116.2566         0.351500   
     68. A(C   8,C   7,H  22)          116.2566         0.351500   
     69. A(C   7,C   8,C   9)          125.4145         0.413916   
     70. A(C   9,C   8,N  33)          109.6111         0.413623   
     71. A(C   7,C   8,N  33)          124.9744         0.428251   
     72. A(C  19,C   9,H  21)          127.8830         0.361079   
     73. A(C   8,C   9,H  21)          125.4459         0.341014   
     74. A(C   8,C   9,C  19)          106.6711         0.424661   
     75. A(C  11,C  10,H  27)          125.4459         0.341014   
     76. A(B   0,C  10,C  11)          106.6711         0.439770   
     77. A(B   0,C  10,H  27)          127.8830         0.373326   
     78. A(C  12,C  11,N  35)          124.9744         0.428251   
     79. A(C  10,C  11,N  35)          109.6111         0.413623   
     80. A(C  10,C  11,C  12)          125.4145         0.413916   
     81. A(C  11,C  12,H  28)          116.2566         0.351500   
     82. A(C  11,C  12,C  13)          127.4867         0.428557   
     83. A(C  13,C  12,H  28)          116.2566         0.351500   
     84. A(C  12,C  13,C  14)          125.4145         0.413916   
     85. A(C  14,C  13,N  36)          109.6111         0.413623   
     86. A(C  12,C  13,N  36)          124.9744         0.428251   
     87. A(C  13,C  14,C  15)          106.6711         0.424661   
     88. A(C  15,C  14,H  29)          127.8830         0.361079   
     89. A(C  13,C  14,H  29)          125.4459         0.341014   
     90. A(C  14,C  15,C  16)          106.6711         0.424661   
     91. A(C  16,C  15,H  30)          125.4459         0.341014   
     92. A(C  14,C  15,H  30)          127.8830         0.361079   
     93. A(C  17,C  16,N  36)          124.9744         0.428251   
     94. A(C  15,C  16,N  36)          109.6111         0.413623   
     95. A(C  15,C  16,C  17)          125.4145         0.413916   
     96. A(C  18,C  17,H  31)          116.2566         0.351500   
     97. A(C  16,C  17,H  31)          116.2566         0.351500   
     98. A(C  16,C  17,C  18)          127.4867         0.428557   
     99. A(C  19,C  18,N  33)          109.6111         0.413623   
    100. A(C  17,C  18,N  33)          124.9744         0.428251   
    101. A(C  17,C  18,C  19)          125.4145         0.413916   
    102. A(C  18,C  19,H  32)          125.4459         0.341014   
    103. A(C   9,C  19,H  32)          127.8830         0.361079   
    104. A(C   9,C  19,C  18)          106.6711         0.424661   
    105. A(N  33,Cu 20,N  34)           90.0000         0.488636   
    106. A(N  35,Cu 20,N  36)           90.0000         0.488637   
    107. A(N  33,Cu 20,N  36)           90.0000         0.488636   
    108. A(N  34,Cu 20,N  35)           90.0000         0.488636   
    109. A(C  18,N  33,Cu 20)          126.2822         0.457042   
    110. A(C   8,N  33,Cu 20)          126.2822         0.457042   
    111. A(C   8,N  33,C  18)          107.4355         0.427946   
    112. A(C   6,N  34,Cu 20)          126.2822         0.457042   
    113. A(C   3,N  34,Cu 20)          126.2822         0.457042   
    114. A(C   3,N  34,C   6)          107.4355         0.427946   
    115. A(C  11,N  35,Cu 20)          126.2822         0.457042   
    116. A(B   1,N  35,Cu 20)          126.2822         0.473690   
    117. A(B   1,N  35,C  11)          107.4355         0.443277   
    118. A(C  16,N  36,Cu 20)          126.2822         0.457042   
    119. A(C  13,N  36,Cu 20)          126.2822         0.457042   
    120. A(C  13,N  36,C  16)          107.4355         0.427946   
    121. D(C   2,B   1,B   0,C  10)   -179.9999         0.020366   
    122. D(N  35,B   1,B   0,C  10)      0.0000         0.020366   
    123. D(C   2,B   1,B   0,H  26)      0.0000         0.020366   
    124. D(N  35,B   1,B   0,H  26)   -180.0000         0.020366   
    125. D(H  25,C   2,B   1,B   0)     -0.0000         0.027442   
    126. D(C   3,C   2,B   1,B   0)    179.9999         0.027442   
    127. D(C   3,C   2,B   1,N  35)     -0.0001         0.027442   
    128. D(H  25,C   2,B   1,N  35)   -180.0000         0.027442   
    129. D(N  34,C   3,C   2,B   1)      0.0001         0.024674   
    130. D(N  34,C   3,C   2,H  25)    180.0000         0.024674   
    131. D(C   4,C   3,C   2,B   1)   -179.9999         0.024674   
    132. D(C   4,C   3,C   2,H  25)      0.0000         0.024674   
    133. D(H  24,C   4,C   3,N  34)    180.0000         0.016515   
    134. D(C   5,C   4,C   3,N  34)     -0.0000         0.016515   
    135. D(C   5,C   4,C   3,C   2)    179.9999         0.016515   
    136. D(H  24,C   4,C   3,C   2)     -0.0000         0.016515   
    137. D(H  23,C   5,C   4,H  24)      0.0000         0.033540   
    138. D(C   6,C   5,C   4,H  24)    180.0000         0.033540   
    139. D(C   6,C   5,C   4,C   3)      0.0000         0.033540   
    140. D(H  23,C   5,C   4,C   3)   -180.0000         0.033540   
    141. D(C   7,C   6,C   5,C   4)   -179.9999         0.016515   
    142. D(N  34,C   6,C   5,H  23)    180.0000         0.016515   
    143. D(C   7,C   6,C   5,H  23)      0.0000         0.016515   
    144. D(N  34,C   6,C   5,C   4)      0.0000         0.016515   
    145. D(H  22,C   7,C   6,C   5)     -0.0000         0.024674   
    146. D(H  22,C   7,C   6,N  34)   -180.0000         0.024674   
    147. D(C   8,C   7,C   6,C   5)    179.9999         0.024674   
    148. D(C   8,C   7,C   6,N  34)     -0.0001         0.024674   
    149. D(N  33,C   8,C   7,C   6)      0.0001         0.024674   
    150. D(C   9,C   8,C   7,C   6)   -179.9999         0.024674   
    151. D(C   9,C   8,C   7,H  22)      0.0000         0.024674   
    152. D(N  33,C   8,C   7,H  22)    180.0000         0.024674   
    153. D(H  21,C   9,C   8,N  33)    180.0000         0.016515   
    154. D(H  21,C   9,C   8,C   7)     -0.0000         0.016515   
    155. D(C  19,C   9,C   8,N  33)     -0.0000         0.016515   
    156. D(C  19,C   9,C   8,C   7)    179.9999         0.016515   
    157. D(H  27,C  10,B   0,H  26)     -0.0000         0.037368   
    158. D(H  27,C  10,B   0,B   1)    180.0000         0.037368   
    159. D(C  11,C  10,B   0,H  26)   -180.0000         0.037368   
    160. D(C  11,C  10,B   0,B   1)      0.0000         0.037368   
    161. D(N  35,C  11,C  10,H  27)    180.0000         0.016515   
    162. D(N  35,C  11,C  10,B   0)     -0.0000         0.016515   
    163. D(C  12,C  11,C  10,H  27)     -0.0000         0.016515   
    164. D(C  12,C  11,C  10,B   0)    179.9999         0.016515   
    165. D(H  28,C  12,C  11,N  35)    180.0000         0.024674   
    166. D(H  28,C  12,C  11,C  10)      0.0000         0.024674   
    167. D(C  13,C  12,C  11,N  35)      0.0001         0.024674   
    168. D(C  13,C  12,C  11,C  10)   -179.9999         0.024674   
    169. D(N  36,C  13,C  12,H  28)   -180.0000         0.024674   
    170. D(C  14,C  13,C  12,H  28)     -0.0000         0.024674   
    171. D(C  14,C  13,C  12,C  11)    179.9999         0.024674   
    172. D(N  36,C  13,C  12,C  11)     -0.0001         0.024674   
    173. D(H  29,C  14,C  13,N  36)   -180.0000         0.016515   
    174. D(H  29,C  14,C  13,C  12)      0.0000         0.016515   
    175. D(C  15,C  14,C  13,N  36)      0.0000         0.016515   
    176. D(C  15,C  14,C  13,C  12)   -179.9999         0.016515   
    177. D(H  30,C  15,C  14,H  29)      0.0000         0.033540   
    178. D(C  16,C  15,C  14,C  13)     -0.0000         0.033540   
    179. D(H  30,C  15,C  14,C  13)    180.0000         0.033540   
    180. D(C  16,C  15,C  14,H  29)   -180.0000         0.033540   
    181. D(N  36,C  16,C  15,C  14)     -0.0000         0.016515   
    182. D(C  17,C  16,C  15,H  30)     -0.0000         0.016515   
    183. D(C  17,C  16,C  15,C  14)    179.9999         0.016515   
    184. D(N  36,C  16,C  15,H  30)    180.0000         0.016515   
    185. D(H  31,C  17,C  16,N  36)    180.0000         0.024674   
    186. D(H  31,C  17,C  16,C  15)      0.0000         0.024674   
    187. D(C  18,C  17,C  16,N  36)      0.0001         0.024674   
    188. D(C  18,C  17,C  16,C  15)   -179.9999         0.024674   
    189. D(N  33,C  18,C  17,H  31)   -180.0000         0.024674   
    190. D(N  33,C  18,C  17,C  16)     -0.0001         0.024674   
    191. D(C  19,C  18,C  17,H  31)     -0.0000         0.024674   
    192. D(C  19,C  18,C  17,C  16)    179.9999         0.024674   
    193. D(H  32,C  19,C  18,N  33)   -180.0000         0.016515   
    194. D(H  32,C  19,C  18,C  17)      0.0000         0.016515   
    195. D(C   9,C  19,C  18,N  33)      0.0000         0.016515   
    196. D(C   9,C  19,C  18,C  17)   -179.9999         0.016515   
    197. D(H  32,C  19,C   9,H  21)     -0.0000         0.033540   
    198. D(H  32,C  19,C   9,C   8)   -180.0000         0.033540   
    199. D(C  18,C  19,C   9,H  21)    180.0000         0.033540   
    200. D(C  18,C  19,C   9,C   8)      0.0000         0.033540   
    201. D(C  18,N  33,Cu 20,N  36)      0.0001         0.002488   
    202. D(C   8,N  33,Cu 20,N  36)   -179.9998         0.002488   
    203. D(C   8,N  33,Cu 20,N  34)     -0.0001         0.002488   
    204. D(Cu 20,N  33,C  18,C  19)    180.0000         0.030924   
    205. D(Cu 20,N  33,C  18,C  17)     -0.0001         0.030924   
    206. D(C   8,N  33,C  18,C  19)     -0.0001         0.030924   
    207. D(C   8,N  33,C  18,C  17)    179.9999         0.030924   
    208. D(Cu 20,N  33,C   8,C   9)   -180.0000         0.030924   
    209. D(Cu 20,N  33,C   8,C   7)      0.0001         0.030924   
    210. D(C  18,N  33,Cu 20,N  34)    179.9998         0.002488   
    211. D(C  18,N  33,C   8,C   9)      0.0001         0.030924   
    212. D(C  18,N  33,C   8,C   7)   -179.9999         0.030924   
    213. D(C   6,N  34,Cu 20,N  35)    179.9998         0.002488   
    214. D(C   3,N  34,Cu 20,N  35)     -0.0001         0.002488   
    215. D(C   3,N  34,Cu 20,N  33)   -179.9998         0.002488   
    216. D(Cu 20,N  34,C   6,C   7)     -0.0001         0.030924   
    217. D(Cu 20,N  34,C   6,C   5)    180.0000         0.030924   
    218. D(C   3,N  34,C   6,C   7)    179.9999         0.030924   
    219. D(C   3,N  34,C   6,C   5)     -0.0000         0.030924   
    220. D(Cu 20,N  34,C   3,C   4)   -180.0000         0.030924   
    221. D(Cu 20,N  34,C   3,C   2)      0.0001         0.030924   
    222. D(C   6,N  34,Cu 20,N  33)      0.0001         0.002488   
    223. D(C   6,N  34,C   3,C   4)      0.0000         0.030924   
    224. D(C   6,N  34,C   3,C   2)   -179.9999         0.030924   
    225. D(C  11,N  35,N  33,C  18)     -0.0000         0.001500   
    226. D(B   1,N  35,N  33,C  18)    179.9998         0.001500   
    227. D(B   1,N  35,N  33,C   8)      0.0000         0.001500   
    228. D(C  11,N  35,Cu 20,N  36)     -0.0001         0.002488   
    229. D(C  11,N  35,Cu 20,N  34)   -179.9998         0.002488   
    230. D(B   1,N  35,Cu 20,N  36)    179.9998         0.002488   
    231. D(B   1,N  35,Cu 20,N  34)      0.0001         0.002488   
    232. D(Cu 20,N  35,C  11,C  12)      0.0001         0.030924   
    233. D(Cu 20,N  35,C  11,C  10)   -180.0000         0.030924   
    234. D(B   1,N  35,C  11,C  12)   -179.9999         0.030924   
    235. D(B   1,N  35,C  11,C  10)      0.0001         0.030924   
    236. D(Cu 20,N  35,B   1,C   2)     -0.0001         0.034373   
    237. D(Cu 20,N  35,B   1,B   0)    180.0000         0.034373   
    238. D(C  11,N  35,N  33,C   8)   -179.9998         0.001500   
    239. D(C  11,N  35,B   1,C   2)    179.9999         0.034373   
    240. D(C  11,N  35,B   1,B   0)     -0.0001         0.034373   
    241. D(C  13,N  36,C  16,C  17)   -179.9999         0.030924   
    242. D(C  13,N  36,C  16,C  15)      0.0000         0.030924   
    243. D(Cu 20,N  36,C  13,C  14)    180.0000         0.030924   
    244. D(Cu 20,N  36,C  13,C  12)     -0.0001         0.030924   
    245. D(C  16,N  36,C  13,C  14)     -0.0000         0.030924   
    246. D(Cu 20,N  36,C  16,C  15)   -180.0000         0.030924   
    247. D(C  16,N  36,C  13,C  12)    179.9999         0.030924   
    248. D(C  16,N  36,N  34,C   6)      0.0000         0.001500   
    249. D(C  16,N  36,N  34,C   3)   -179.9998         0.001500   
    250. D(C  13,N  36,N  34,C   6)    179.9998         0.001500   
    251. D(C  13,N  36,N  34,C   3)      0.0000         0.001500   
    252. D(C  16,N  36,Cu 20,N  35)   -179.9998         0.002488   
    253. D(C  16,N  36,Cu 20,N  33)     -0.0001         0.002488   
    254. D(C  13,N  36,Cu 20,N  35)      0.0001         0.002488   
    255. D(C  13,N  36,Cu 20,N  33)    179.9998         0.002488   
    256. D(Cu 20,N  36,C  16,C  17)      0.0001         0.030924   
    -----------------------------------------------------------------

Number of atoms                         .... 37
Number of degrees of freedom            .... 256

         *************************************************************
         *                GEOMETRY OPTIMIZATION CYCLE   1            *
         *************************************************************
---------------------------------
CARTESIAN COORDINATES (ANGSTROEM)
---------------------------------
  B     -4.270170    0.681323    0.000001
  B     -2.876535    1.098668   -0.000002
  C     -2.426103    2.426103   -0.000001
  C     -1.098668    2.876535   -0.000001
  C     -0.681323    4.270169    0.000001
  C      0.681323    4.270169    0.000001
  C      1.098668    2.876534   -0.000001
  C      2.426103    2.426103   -0.000001
  C      2.876535    1.098668   -0.000002
  C      4.270170    0.681323    0.000001
  C     -4.270170   -0.681323    0.000001
  C     -2.876535   -1.098667   -0.000002
  C     -2.426103   -2.426103   -0.000001
  C     -1.098668   -2.876535   -0.000001
  C     -0.681323   -4.270169    0.000001
  C      0.681323   -4.270169    0.000001
  C      1.098668   -2.876535   -0.000001
  C      2.426103   -2.426103   -0.000001
  C      2.876535   -1.098668   -0.000002
  C      4.270170   -0.681323    0.000001
  Cu    -0.000000   -0.000000   -0.000009
  H      5.124774    1.346207    0.000003
  H      3.194557    3.194557    0.000001
  H      1.346207    5.124774    0.000003
  H     -1.346207    5.124774    0.000003
  H     -3.194557    3.194557    0.000001
  H     -5.124774    1.346207    0.000003
  H     -5.124774   -1.346206    0.000003
  H     -3.194557   -3.194557    0.000001
  H     -1.346207   -5.124774    0.000003
  H      1.346207   -5.124774    0.000003
  H      3.194557   -3.194557    0.000001
  H      5.124774   -1.346206    0.000003
  N      2.070007   -0.000000   -0.000004
  N     -0.000000    2.070007   -0.000004
  N     -2.070007   -0.000000   -0.000004
  N     -0.000000   -2.070007   -0.000004

----------------------------
CARTESIAN COORDINATES (A.U.)
----------------------------
  NO LB      ZA    FRAG     MASS         X           Y           Z
   0 B     5.0000    0    10.810   -8.069451    1.287514    0.000002
   1 B     5.0000    0    10.810   -5.435863    2.076181   -0.000003
   2 C     6.0000    0    12.011   -4.584670    4.584669   -0.000002
   3 C     6.0000    0    12.011   -2.076181    5.435862   -0.000003
   4 C     6.0000    0    12.011   -1.287514    8.069451    0.000002
   5 C     6.0000    0    12.011    1.287514    8.069451    0.000002
   6 C     6.0000    0    12.011    2.076181    5.435862   -0.000003
   7 C     6.0000    0    12.011    4.584669    4.584669   -0.000002
   8 C     6.0000    0    12.011    5.435863    2.076181   -0.000003
   9 C     6.0000    0    12.011    8.069451    1.287514    0.000002
  10 C     6.0000    0    12.011   -8.069451   -1.287514    0.000002
  11 C     6.0000    0    12.011   -5.435863   -2.076181   -0.000003
  12 C     6.0000    0    12.011   -4.584670   -4.584669   -0.000002
  13 C     6.0000    0    12.011   -2.076181   -5.435862   -0.000003
  14 C     6.0000    0    12.011   -1.287514   -8.069451    0.000002
  15 C     6.0000    0    12.011    1.287514   -8.069451    0.000002
  16 C     6.0000    0    12.011    2.076181   -5.435862   -0.000003
  17 C     6.0000    0    12.011    4.584670   -4.584669   -0.000002
  18 C     6.0000    0    12.011    5.435863   -2.076181   -0.000003
  19 C     6.0000    0    12.011    8.069451   -1.287514    0.000002
  20 Cu   29.0000    0    63.550   -0.000000   -0.000000   -0.000017
  21 H     1.0000    0     1.008    9.684419    2.543962    0.000006
  22 H     1.0000    0     1.008    6.036838    6.036838    0.000002
  23 H     1.0000    0     1.008    2.543962    9.684419    0.000006
  24 H     1.0000    0     1.008   -2.543962    9.684419    0.000006
  25 H     1.0000    0     1.008   -6.036838    6.036838    0.000003
  26 H     1.0000    0     1.008   -9.684419    2.543962    0.000006
  27 H     1.0000    0     1.008   -9.684420   -2.543962    0.000006
  28 H     1.0000    0     1.008   -6.036838   -6.036838    0.000002
  29 H     1.0000    0     1.008   -2.543962   -9.684419    0.000006
  30 H     1.0000    0     1.008    2.543962   -9.684419    0.000006
  31 H     1.0000    0     1.008    6.036838   -6.036838    0.000003
  32 H     1.0000    0     1.008    9.684420   -2.543962    0.000006
  33 N     7.0000    0    14.007    3.911747   -0.000000   -0.000007
  34 N     7.0000    0    14.007   -0.000000    3.911746   -0.000007
  35 N     7.0000    0    14.007   -3.911747   -0.000000   -0.000007
  36 N     7.0000    0    14.007   -0.000000   -3.911747   -0.000007

--------------------------------
INTERNAL COORDINATES (ANGSTROEM)
--------------------------------
 B      0   0   0     0.000000000000     0.00000000     0.00000000
 B      1   0   0     1.454783360514     0.00000000     0.00000000
 C      2   1   0     1.401774869338   125.41445477     0.00000000
 C      3   2   1     1.401774886827   127.48672014   179.99990408
 C      4   3   2     1.454783364363   125.41445615   180.00009747
 C      5   4   3     1.362646454443   106.67109555   179.99993387
 C      6   5   4     1.454783348301   106.67109574     0.00000000
 C      7   6   5     1.401774881304   125.41445431   180.00006740
 C      8   7   6     1.401774877593   127.48671974   179.99990066
 C      9   8   7     1.454783381268   125.41445449   180.00010075
 C      1   2   3     1.362646436691   106.67109527   180.00006998
 C     11   1   2     1.454783370165   106.67109464     0.00000000
 C     12  11   1     1.401774875511   125.41445637   179.99992901
 C     13  12  11     1.401774893453   127.48672143   180.00009677
 C     14  13  12     1.454783365362   125.41445684   179.99990151
 C     15  14  13     1.362646462026   106.67109633   180.00006774
 C     16  15  14     1.454783353198   106.67109557     0.00000000
 C     17  16  15     1.401774890155   125.41445575   179.99993344
 C     18  17  16     1.401774875187   127.48672026   180.00009634
 C     10   9   8     1.362646443857   106.67109482   179.99992686
 Cu    14  13  12     3.079207839452    92.16056445     0.00000000
 H     10   9   8     1.082782862731   125.44594914     0.00000000
 H      8   7   6     1.086758754422   116.25663981     0.00000000
 H      6   5   4     1.082782828535   127.88295939   180.00003175
 H      5   4   3     1.082782836423   125.44594679     0.00000000
 H      3   2   1     1.086758742740   116.25664020     0.00000000
 H      1   2   3     1.082782850625   125.44594809     0.00000000
 H     11   1   2     1.082782848681   127.88295569   179.99996758
 H     13  12  11     1.086758748946   116.25663978     0.00000000
 H     15  14  13     1.082782839042   125.44594523     0.00000000
 H     16  15  14     1.082782835480   127.88295854   179.99996853
 H     18  17  16     1.086758742117   116.25663999     0.00000000
 H     20  10   9     1.082782859960   127.88295602   180.00003444
 N     19  18  17     1.362922152311   124.97439489     0.00000000
 N      4   3   2     1.362922159896   124.97439650     0.00000000
 N     12  11   1     1.362922137720   109.61114863     0.00000000
 N     14  13  12     1.362922154539   124.97439714     0.00000000

---------------------------
INTERNAL COORDINATES (A.U.)
---------------------------
 B      0   0   0     0.000000000000     0.00000000     0.00000000
 B      1   0   0     2.749142135557     0.00000000     0.00000000
 C      2   1   0     2.648970604463   125.41445477     0.00000000
 C      3   2   1     2.648970637512   127.48672014   179.99990408
 C      4   3   2     2.749142142831   125.41445615   180.00009747
 C      5   4   3     2.575028616257   106.67109555   179.99993387
 C      6   5   4     2.749142112479   106.67109574     0.00000000
 C      7   6   5     2.648970627075   125.41445431   180.00006740
 C      8   7   6     2.648970620061   127.48671974   179.99990066
 C      9   8   7     2.749142174776   125.41445449   180.00010075
 C      1   2   3     2.575028582710   106.67109527   180.00006998
 C     11   1   2     2.749142153795   106.67109464     0.00000000
 C     12  11   1     2.648970616128   125.41445637   179.99992901
 C     13  12  11     2.648970650033   127.48672143   180.00009677
 C     14  13  12     2.749142144718   125.41445684   179.99990151
 C     15  14  13     2.575028630586   106.67109633   180.00006774
 C     16  15  14     2.749142121731   106.67109557     0.00000000
 C     17  16  15     2.648970643800   125.41445575   179.99993344
 C     18  17  16     2.648970615516   127.48672026   180.00009634
 C     10   9   8     2.575028596251   106.67109482   179.99992686
 Cu    14  13  12     5.818859525988    92.16056445     0.00000000
 H     10   9   8     2.046163073065   125.44594914     0.00000000
 H      8   7   6     2.053676419499   116.25663981     0.00000000
 H      6   5   4     2.046163008444   127.88295939   180.00003175
 H      5   4   3     2.046163023350   125.44594679     0.00000000
 H      3   2   1     2.053676397424   116.25664020     0.00000000
 H      1   2   3     2.046163050189   125.44594809     0.00000000
 H     11   1   2     2.046163046514   127.88295569   179.99996758
 H     13  12  11     2.053676409150   116.25663978     0.00000000
 H     15  14  13     2.046163028298   125.44594523     0.00000000
 H     16  15  14     2.046163021568   127.88295854   179.99996853
 H     18  17  16     2.053676396245   116.25663999     0.00000000
 H     20  10   9     2.046163067828   127.88295602   180.00003444
 N     19  18  17     2.575549609723   124.97439489     0.00000000
 N      4   3   2     2.575549624057   124.97439650     0.00000000
 N     12  11   1     2.575549582150   109.61114863     0.00000000
 N     14  13  12     2.575549613932   124.97439714     0.00000000

---------------------
BASIS SET INFORMATION
---------------------
There are 5 groups of distinct atoms

 Group   1 Type B   : 11s6p2d1f contracted to 5s3p2d1f pattern {62111/411/11/1}
 Group   2 Type C   : 11s6p2d1f contracted to 5s3p2d1f pattern {62111/411/11/1}
 Group   3 Type Cu  : 17s11p7d1f contracted to 6s4p4d1f pattern {842111/6311/4111/1}
 Group   4 Type H   : 5s1p contracted to 3s1p pattern {311/1}
 Group   5 Type N   : 11s6p2d1f contracted to 5s3p2d1f pattern {62111/411/11/1}

Atom   0B    basis set group =>   1
Atom   1B    basis set group =>   1
Atom   2C    basis set group =>   2
Atom   3C    basis set group =>   2
Atom   4C    basis set group =>   2
Atom   5C    basis set group =>   2
Atom   6C    basis set group =>   2
Atom   7C    basis set group =>   2
Atom   8C    basis set group =>   2
Atom   9C    basis set group =>   2
Atom  10C    basis set group =>   2
Atom  11C    basis set group =>   2
Atom  12C    basis set group =>   2
Atom  13C    basis set group =>   2
Atom  14C    basis set group =>   2
Atom  15C    basis set group =>   2
Atom  16C    basis set group =>   2
Atom  17C    basis set group =>   2
Atom  18C    basis set group =>   2
Atom  19C    basis set group =>   2
Atom  20Cu   basis set group =>   3
Atom  21H    basis set group =>   4
Atom  22H    basis set group =>   4
Atom  23H    basis set group =>   4
Atom  24H    basis set group =>   4
Atom  25H    basis set group =>   4
Atom  26H    basis set group =>   4
Atom  27H    basis set group =>   4
Atom  28H    basis set group =>   4
Atom  29H    basis set group =>   4
Atom  30H    basis set group =>   4
Atom  31H    basis set group =>   4
Atom  32H    basis set group =>   4
Atom  33N    basis set group =>   5
Atom  34N    basis set group =>   5
Atom  35N    basis set group =>   5
Atom  36N    basis set group =>   5
---------------------------------
AUXILIARY/J BASIS SET INFORMATION
---------------------------------
There are 5 groups of distinct atoms

 Group   1 Type B   : 12s5p4d2f1g contracted to 6s4p3d1f1g pattern {711111/2111/211/2/1}
 Group   2 Type C   : 12s5p4d2f1g contracted to 6s4p3d1f1g pattern {711111/2111/211/2/1}
 Group   3 Type Cu  : 19s5p5d3f3g contracted to 8s5p4d3f3g pattern {121111111/11111/2111/111/111}
 Group   4 Type H   : 5s2p1d contracted to 3s1p1d pattern {311/2/1}
 Group   5 Type N   : 12s5p4d2f1g contracted to 6s4p3d1f1g pattern {711111/2111/211/2/1}

Atom   0B    basis set group =>   1
Atom   1B    basis set group =>   1
Atom   2C    basis set group =>   2
Atom   3C    basis set group =>   2
Atom   4C    basis set group =>   2
Atom   5C    basis set group =>   2
Atom   6C    basis set group =>   2
Atom   7C    basis set group =>   2
Atom   8C    basis set group =>   2
Atom   9C    basis set group =>   2
Atom  10C    basis set group =>   2
Atom  11C    basis set group =>   2
Atom  12C    basis set group =>   2
Atom  13C    basis set group =>   2
Atom  14C    basis set group =>   2
Atom  15C    basis set group =>   2
Atom  16C    basis set group =>   2
Atom  17C    basis set group =>   2
Atom  18C    basis set group =>   2
Atom  19C    basis set group =>   2
Atom  20Cu   basis set group =>   3
Atom  21H    basis set group =>   4
Atom  22H    basis set group =>   4
Atom  23H    basis set group =>   4
Atom  24H    basis set group =>   4
Atom  25H    basis set group =>   4
Atom  26H    basis set group =>   4
Atom  27H    basis set group =>   4
Atom  28H    basis set group =>   4
Atom  29H    basis set group =>   4
Atom  30H    basis set group =>   4
Atom  31H    basis set group =>   4
Atom  32H    basis set group =>   4
Atom  33N    basis set group =>   5
Atom  34N    basis set group =>   5
Atom  35N    basis set group =>   5
Atom  36N    basis set group =>   5


           ************************************************************
           *        Program running with 16 parallel MPI-processes    *
           *              working on a common directory               *
           ************************************************************
------------------------------------------------------------------------------
                           ORCA GTO INTEGRAL CALCULATION
                           -- RI-GTO INTEGRALS CHOSEN --
------------------------------------------------------------------------------
------------------------------------------------------------------------------
                   ___                                                        
                  /   \      - P O W E R E D   B Y -                         
                 /     \                                                     
                 |  |  |   _    _      __       _____    __    __             
                 |  |  |  | |  | |    /  \     |  _  \  |  |  /  |          
                  \  \/   | |  | |   /    \    | | | |  |  | /  /          
                 / \  \   | |__| |  /  /\  \   | |_| |  |  |/  /          
                |  |  |   |  __  | /  /__\  \  |    /   |      \           
                |  |  |   | |  | | |   __   |  |    \   |  |\   \          
                \     /   | |  | | |  |  |  |  | |\  \  |  | \   \       
                 \___/    |_|  |_| |__|  |__|  |_| \__\ |__|  \__/        
                                                                              
                      - O R C A' S   B I G   F R I E N D -                    
                                      &                                       
                       - I N T E G R A L  F E E D E R -                       
                                                                              
 v1 FN, 2020, v2 2021                                                         
------------------------------------------------------------------------------


Reading SHARK input file scan.SHARKINP.tmp ... ok
----------------------
SHARK INTEGRAL PACKAGE
----------------------

Number of atoms                             ...     37
Number of basis functions                   ...    861
Number of shells                            ...    327
Maximum angular momentum                    ...      3
Integral batch strategy                     ... SHARK/LIBINT Hybrid
RI-J (if used) integral strategy            ... SPLIT-RIJ (Revised 2003 algorithm where possible)
Printlevel                                  ...      1
Contraction scheme used                     ... SEGMENTED contraction
Coulomb Range Separation                    ... NOT USED
Exchange Range Separation                   ... NOT USED
Finite Nucleus Model                        ... NOT USED
Auxiliary Coulomb fitting basis             ... AVAILABLE
   # of basis functions in Aux-J            ...   1399
   # of shells in Aux-J                     ...    443
   Maximum angular momentum in Aux-J        ...      4
Auxiliary J/K fitting basis                 ... NOT available
Auxiliary Correlation fitting basis         ... NOT available
Auxiliary 'external' fitting basis          ... NOT available
Integral threshold                          ...     2.500000e-11
Primitive cut-off                           ...     2.500000e-12
Primitive pair pre-selection threshold      ...     2.500000e-12

Calculating pre-screening integrals         ... done (  0.1 sec) Dimension = 327
Organizing shell pair data                  ... done (  1.3 sec)
Shell pair information
Total number of shell pairs                 ...     53628
Shell pairs after pre-screening             ...     38249
Total number of primitive shell pairs       ...    173789
Primitive shell pairs kept                  ...     80512
          la=0 lb=0:   8837 shell pairs
          la=1 lb=0:  10605 shell pairs
          la=1 lb=1:   3182 shell pairs
          la=2 lb=0:   5796 shell pairs
          la=2 lb=1:   3587 shell pairs
          la=2 lb=2:   1043 shell pairs
          la=3 lb=0:   2516 shell pairs
          la=3 lb=1:   1612 shell pairs
          la=3 lb=2:    876 shell pairs
          la=3 lb=3:    195 shell pairs

Calculating one electron integrals          ... done (  0.1 sec)
Calculating RI/J V-Matrix + Cholesky decomp.... done (  1.2 sec)
Calculating Nuclear repulsion               ... done (  0.0 sec) ENN=   2504.991503811134 Eh

SHARK setup successfully completed in   6.4 seconds

Maximum memory used throughout the entire GTOINT-calculation: 60.6 MB


           ************************************************************
           *        Program running with 16 parallel MPI-processes    *
           *              working on a common directory               *
           ************************************************************
-------------------------------------------------------------------------------
                                 ORCA SCF
-------------------------------------------------------------------------------

------------
SCF SETTINGS
------------
Hamiltonian:
 Density Functional     Method          .... DFT(GTOs)
 Exchange Functional    Exchange        .... PBE
   PBE kappa parameter   XKappa         ....  0.804000
   PBE mue parameter    XMuePBE         ....  0.219520
 Correlation Functional Correlation     .... PBE
   PBE beta parameter  CBetaPBE         ....  0.066725
 LDA part of GGA corr.  LDAOpt          .... PW91-LDA
 Gradients option       PostSCFGGA      .... off
 Hybrid DFT is turned on
   Fraction HF Exchange ScalHFX         ....  0.250000
   Scaling of DF-GGA-X  ScalDFX         ....  0.750000
   Scaling of DF-GGA-C  ScalDFC         ....  1.000000
   Scaling of DF-LDA-C  ScalLDAC        ....  1.000000
   Perturbative correction              ....  0.000000
   Density functional embedding theory  .... OFF
   NL short-range parameter             ....  6.900000
 RI-approximation to the Coulomb term is turned on
   Number of AuxJ basis functions       .... 1399
   RIJ-COSX (HFX calculated with COS-X)).... on


General Settings:
 Integral files         IntName         .... scan
 Hartree-Fock type      HFTyp           .... RHF
 Total Charge           Charge          ....   -1
 Multiplicity           Mult            ....    1
 Number of Electrons    NEL             ....  188
 Basis Dimension        Dim             ....  861
 Nuclear Repulsion      ENuc            ....   2504.9915038111 Eh

Convergence Acceleration:
 DIIS                   CNVDIIS         .... on
   Start iteration      DIISMaxIt       ....    12
   Startup error        DIISStart       ....  0.200000
   # of expansion vecs  DIISMaxEq       ....     5
   Bias factor          DIISBfac        ....   1.050
   Max. coefficient     DIISMaxC        ....  10.000
 Trust-Rad. Augm. Hess. CNVTRAH         .... auto
   Auto Start mean grad. ratio tolernc. ....  1.125000
   Auto Start start iteration           ....    20
   Auto Start num. interpolation iter.  ....    10
   Max. Number of Micro iterations      ....    16
   Max. Number of Macro iterations      .... Maxiter - #DIIS iter
   Number of Davidson start vectors     ....     2
   Converg. threshold I  (grad. norm)   ....   1.000e-05
   Converg. threshold II (energy diff.) ....   1.000e-08
   Grad. Scal. Fac. for Micro threshold ....   0.100
   Minimum threshold for Micro iter.    ....   0.010
   NR start threshold (gradient norm)   ....   0.001
   Initial trust radius                 ....   0.400
   Minimum AH scaling param. (alpha)    ....   1.000
   Maximum AH scaling param. (alpha)    .... 1000.000
   Orbital update algorithm             .... Taylor
   White noise on init. David. guess    .... on
   Maximum white noise                  ....   0.010
   Quad. conv. algorithm                .... NR
 SOSCF                  CNVSOSCF        .... off
 Level Shifting         CNVShift        .... on
   Level shift para.    LevelShift      ....    0.2500
   Turn off err/grad.   ShiftErr        ....    0.0010
 Zerner damping         CNVZerner       .... off
 Static damping         CNVDamp         .... on
   Fraction old density DampFac         ....    0.7000
   Max. Damping (<1)    DampMax         ....    0.9800
   Min. Damping (>=0)   DampMin         ....    0.0000
   Turn off err/grad.   DampErr         ....    0.1000
 Fernandez-Rico         CNVRico         .... off

SCF Procedure:
 Maximum # iterations   MaxIter         ....   125
 SCF integral mode      SCFMode         .... Direct
   Integral package                     .... SHARK and LIBINT hybrid scheme
 Reset frequency        DirectResetFreq ....    20
 Integral Threshold     Thresh          ....  2.500e-11 Eh
 Primitive CutOff       TCut            ....  2.500e-12 Eh

Convergence Tolerance:
 Convergence Check Mode ConvCheckMode   .... Total+1el-Energy
 Convergence forced     ConvForced      .... 0
 Energy Change          TolE            ....  1.000e-08 Eh
 1-El. energy change                    ....  1.000e-05 Eh
 DIIS Error             TolErr          ....  5.000e-07


Diagonalization of the overlap matrix:
Smallest eigenvalue                        ... 1.128e-05
Time for diagonalization                   ...    0.139 sec
Threshold for overlap eigenvalues          ... 1.000e-08
Number of eigenvalues below threshold      ... 0
Time for construction of square roots      ...    0.343 sec
Total time needed                          ...    0.485 sec

Time for model grid setup =    2.720 sec

------------------------------
INITIAL GUESS: MODEL POTENTIAL
------------------------------
Loading Hartree-Fock densities                     ... done
Calculating cut-offs                               ... done
Initializing the effective Hamiltonian             ... done
Setting up the integral package (SHARK)            ... done
Starting the Coulomb interaction                   ... done (   0.6 sec)
Reading the grid                                   ... done
Mapping shells                                     ... done
Starting the XC term evaluation                    ... done (   0.2 sec)
  promolecular density results
     # of electrons  =    187.007650354
     EX              =   -195.032069892
     EC              =     -6.691681130
     EX+EC           =   -201.723751022
Transforming the Hamiltonian                       ... done (   0.1 sec)
Diagonalizing the Hamiltonian                      ... done (   0.1 sec)
Back transforming the eigenvectors                 ... done (   0.0 sec)
Now organizing SCF variables                       ... done
                      ------------------
                      INITIAL GUESS DONE (   4.3 sec)
                      ------------------
-------------------
DFT GRID GENERATION
-------------------

General Integration Accuracy     IntAcc      ... 4.388
Radial Grid Type                 RadialGrid  ... OptM3 with GC (2021)
Angular Grid (max. ang.)         AngularGrid ... 4 (Lebedev-302)
Angular grid pruning method      GridPruning ... 4 (adaptive)
Weight generation scheme         WeightScheme... Becke
Basis function cutoff            BFCut       ... 1.0000e-11
Integration weight cutoff        WCut        ... 1.0000e-14
Angular grids for H and He will be reduced by one unit
Partially contracted basis set               ... off
Rotationally invariant grid construction     ... off

Total number of grid points                  ...   191761
Total number of batches                      ...     3015
Average number of points per batch           ...       63
Average number of grid points per atom       ...     5183
Time for grid setup =    2.617 sec

--------------------
COSX GRID GENERATION
--------------------

GRIDX 1
-------
General Integration Accuracy     IntAcc      ... 3.816
Radial Grid Type                 RadialGrid  ... OptM3 with GC (2021)
Angular Grid (max. ang.)         AngularGrid ... 1 (Lebedev-50)
Angular grid pruning method      GridPruning ... 4 (adaptive)
Weight generation scheme         WeightScheme... Becke
Basis function cutoff            BFCut       ... 1.0000e-11
Integration weight cutoff        WCut        ... 1.0000e-14
Angular grids for H and He will be reduced by one unit
Partially contracted basis set               ... on
Rotationally invariant grid construction     ... off

Total number of grid points                  ...    24168
Total number of batches                      ...      396
Average number of points per batch           ...       61
Average number of grid points per atom       ...      653
UseSFitting                                  ... on

GRIDX 2
-------
General Integration Accuracy     IntAcc      ... 4.020
Radial Grid Type                 RadialGrid  ... OptM3 with GC (2021)
Angular Grid (max. ang.)         AngularGrid ... 2 (Lebedev-110)
Angular grid pruning method      GridPruning ... 4 (adaptive)
Weight generation scheme         WeightScheme... Becke
Basis function cutoff            BFCut       ... 1.0000e-11
Integration weight cutoff        WCut        ... 1.0000e-14
Angular grids for H and He will be reduced by one unit
Partially contracted basis set               ... on
Rotationally invariant grid construction     ... off

Total number of grid points                  ...    53333
Total number of batches                      ...      857
Average number of points per batch           ...       62
Average number of grid points per atom       ...     1441
UseSFitting                                  ... on

GRIDX 3
-------
General Integration Accuracy     IntAcc      ... 4.338
Radial Grid Type                 RadialGrid  ... OptM3 with GC (2021)
Angular Grid (max. ang.)         AngularGrid ... 3 (Lebedev-194)
Angular grid pruning method      GridPruning ... 4 (adaptive)
Weight generation scheme         WeightScheme... Becke
Basis function cutoff            BFCut       ... 1.0000e-11
Integration weight cutoff        WCut        ... 1.0000e-14
Angular grids for H and He will be reduced by one unit
Partially contracted basis set               ... on
Rotationally invariant grid construction     ... off

Total number of grid points                  ...   117120
Total number of batches                      ...     1849
Average number of points per batch           ...       63
Average number of grid points per atom       ...     3165
UseSFitting                                  ... on

Time for X-Grid setup             =   15.569 sec

--------------
SCF ITERATIONS
--------------
ITER       Energy         Delta-E        Max-DP      RMS-DP      [F,P]     Damp
               ***  Starting incremental Fock matrix formation  ***
  0  -2599.7871115687   0.000000000000 1.28437708  0.00336644  0.6053496 0.7000
  1  -2600.5621117188  -0.775000150058 0.13419339  0.00082528  0.1255034 0.7000
  2  -2600.6440071597  -0.081895440933 0.36100692  0.00099111  0.2176339 0.7000
                               ***Turning on DIIS***
  3  -2600.8697429549  -0.225735795152 0.63183766  0.00192795  0.0710620 0.0000
  4  -2601.1765048528  -0.306761897953 0.03820143  0.00015135  0.1238589 0.7000
  5  -2601.2168625827  -0.040357729898 0.10281603  0.00054759  0.0844205 0.0000
  6  -2601.3059177235  -0.089055140794 0.12931132  0.00035707  0.0969078 0.0000
  7  -2601.3192307061  -0.013312982640 0.02411247  0.00015398  0.0555374 0.0000
  8  -2601.3284239655  -0.009193259339 0.00609599  0.00007677  0.0123192 0.0000
  9  -2601.3302543854  -0.001830419903 0.00947865  0.00004951  0.0102760 0.0000
 10  -2601.3306515944  -0.000397209024 0.00607861  0.00002769  0.0034016 0.0000
 11  -2601.3307322656  -0.000080671236 0.00387428  0.00001955  0.0024683 0.0000
 12  -2601.3307641269  -0.000031861301 0.00125289  0.00001155  0.0016979 0.0000
 13  -2601.3307783331  -0.000014206147 0.00113717  0.00001038  0.0006511 0.0000
               *** Restarting incremental Fock matrix formation ***
                                   *** Resetting DIIS ***
 14  -2601.3306901356   0.000088197525 0.00594188  0.00006906  0.0003345 0.0000
 15  -2601.3306870053   0.000003130260 0.00089527  0.00000501  0.0007139 0.0000
 16  -2601.3306897837  -0.000002778395 0.00071061  0.00000226  0.0008567 0.0000
 17  -2601.3306913966  -0.000001612923 0.00025794  0.00000152  0.0003096 0.0000
 18  -2601.3306914988  -0.000000102189 0.00014846  0.00000107  0.0001725 0.0000
 19  -2601.3306915631  -0.000000064245 0.00009301  0.00000062  0.0000219 0.0000
 20  -2601.3306915672  -0.000000004186 0.00010240  0.00000094  0.0000354 0.0000
 21  -2601.3306915782  -0.000000010974 0.00009620  0.00000062  0.0000087 0.0000
 22  -2601.3306915436   0.000000034614 0.00003638  0.00000030  0.0000299 0.0000
 23  -2601.3306915487  -0.000000005130 0.00005884  0.00000042  0.0000180 0.0000
 24  -2601.3306915704  -0.000000021641 0.00005252  0.00000028  0.0000101 0.0000
 25  -2601.3306915263   0.000000044049 0.00012721  0.00000070  0.0000047 0.0000
 26  -2601.3306915719  -0.000000045619 0.00005420  0.00000036  0.0000016 0.0000
 27  -2601.3306915768  -0.000000004877 0.00009451  0.00000047  0.0000012 0.0000
                            ***DIIS convergence achieved***

               *****************************************************
               *                     SUCCESS                       *
               *           SCF CONVERGED AFTER  28 CYCLES          *
               *****************************************************

Old exchange energy                            =    -49.398352592 Eh
New exchange energy                            =    -49.398369103 Eh
Exchange energy change after final integration =     -0.000016512 Eh
Total energy after final integration           =  -2601.330708091 Eh
Final COS-X integration done in                =    19.685 sec

----------------
TOTAL SCF ENERGY
----------------

Total Energy       :        -2601.33070809 Eh          -70785.80725 eV

Components:
Nuclear Repulsion  :         2504.99150381 Eh           68164.28422 eV
Electronic Energy  :        -5106.32221190 Eh         -138950.09147 eV
One Electron Energy:        -8595.84744141 Eh         -233904.90038 eV
Two Electron Energy:         3489.52522951 Eh           94954.80890 eV
Max COSX asymmetry :            0.00000516 Eh               0.00014 eV

Virial components:
Potential Energy   :        -5196.33482164 Eh         -141399.45911 eV
Kinetic Energy     :         2595.00411355 Eh           70613.65186 eV
Virial Ratio       :            2.00243799


DFT components:
N(Alpha)           :       94.000044562401 electrons
N(Beta)            :       94.000044562401 electrons
N(Total)           :      188.000089124802 electrons
E(X)               :     -148.102721382412 Eh       
E(C)               :       -6.736267852689 Eh       
E(XC)              :     -154.838989235101 Eh       
DFET-embed. en.    :        0.000000000000 Eh       

---------------
SCF CONVERGENCE
---------------

  Last Energy change         ...   -2.4552e-09  Tolerance :   1.0000e-08
  Last MAX-Density change    ...    0.0000e+00  Tolerance :   1.0000e-07
  Last RMS-Density change    ...    0.0000e+00  Tolerance :   5.0000e-09
  Last DIIS Error            ...    3.6347e-07  Tolerance :   5.0000e-07

             **** THE GBW FILE WAS UPDATED (scan.gbw) ****
             **** DENSITY scan.scfp WAS UPDATED ****
             **** ENERGY FILE WAS UPDATED (scan.en.tmp) ****
             **** THE GBW FILE WAS UPDATED (scan.gbw) ****
             **** DENSITY scan.scfp WAS UPDATED ****
----------------
ORBITAL ENERGIES
----------------

  NO   OCC          E(Eh)            E(eV) 
   0   2.0000    -323.311144     -8797.7435 
   1   2.0000     -38.918079     -1059.0148 
   2   2.0000     -34.085727      -927.5198 
   3   2.0000     -34.085169      -927.5046 
   4   2.0000     -34.082493      -927.4318 
   5   2.0000     -14.294490      -388.9728 
   6   2.0000     -14.288361      -388.8061 
   7   2.0000     -14.288344      -388.8056 
   8   2.0000     -14.260453      -388.0467 
   9   2.0000     -10.155248      -276.3384 
  10   2.0000     -10.154985      -276.3312 
  11   2.0000     -10.153540      -276.2919 
  12   2.0000     -10.152620      -276.2668 
  13   2.0000     -10.152254      -276.2569 
  14   2.0000     -10.146875      -276.1105 
  15   2.0000     -10.139880      -275.9202 
  16   2.0000     -10.127809      -275.5917 
  17   2.0000     -10.126013      -275.5428 
  18   2.0000     -10.125411      -275.5264 
  19   2.0000     -10.124466      -275.5007 
  20   2.0000     -10.124395      -275.4988 
  21   2.0000     -10.123420      -275.4723 
  22   2.0000     -10.122917      -275.4586 
  23   2.0000     -10.122014      -275.4340 
  24   2.0000     -10.104009      -274.9441 
  25   2.0000     -10.065591      -273.8986 
  26   2.0000     -10.029509      -272.9168 
  27   2.0000      -6.559678      -178.4979 
  28   2.0000      -6.525067      -177.5561 
  29   2.0000      -4.330169      -117.8299 
  30   2.0000      -2.814040       -76.5739 
  31   2.0000      -2.812285       -76.5262 
  32   2.0000      -2.789584       -75.9084 
  33   2.0000      -0.885466       -24.0948 
  34   2.0000      -0.878767       -23.9125 
  35   2.0000      -0.872464       -23.7409 
  36   2.0000      -0.811256       -22.0754 
  37   2.0000      -0.719306       -19.5733 
  38   2.0000      -0.694324       -18.8935 
  39   2.0000      -0.689237       -18.7551 
  40   2.0000      -0.685951       -18.6657 
  41   2.0000      -0.682811       -18.5802 
  42   2.0000      -0.667067       -18.1518 
  43   2.0000      -0.632376       -17.2078 
  44   2.0000      -0.603022       -16.4091 
  45   2.0000      -0.571510       -15.5516 
  46   2.0000      -0.544763       -14.8237 
  47   2.0000      -0.520957       -14.1760 
  48   2.0000      -0.492253       -13.3949 
  49   2.0000      -0.484228       -13.1765 
  50   2.0000      -0.471218       -12.8225 
  51   2.0000      -0.464169       -12.6307 
  52   2.0000      -0.453611       -12.3434 
  53   2.0000      -0.447755       -12.1840 
  54   2.0000      -0.434006       -11.8099 
  55   2.0000      -0.424103       -11.5404 
  56   2.0000      -0.396481       -10.7888 
  57   2.0000      -0.377060       -10.2603 
  58   2.0000      -0.366078        -9.9615 
  59   2.0000      -0.346756        -9.4357 
  60   2.0000      -0.341299        -9.2872 
  61   2.0000      -0.335776        -9.1369 
  62   2.0000      -0.327472        -8.9110 
  63   2.0000      -0.326284        -8.8786 
  64   2.0000      -0.323841        -8.8122 
  65   2.0000      -0.319461        -8.6930 
  66   2.0000      -0.313041        -8.5183 
  67   2.0000      -0.312970        -8.5163 
  68   2.0000      -0.295439        -8.0393 
  69   2.0000      -0.292318        -7.9544 
  70   2.0000      -0.290320        -7.9000 
  71   2.0000      -0.284498        -7.7416 
  72   2.0000      -0.283432        -7.7126 
  73   2.0000      -0.276227        -7.5165 
  74   2.0000      -0.274818        -7.4782 
  75   2.0000      -0.266172        -7.2429 
  76   2.0000      -0.265233        -7.2174 
  77   2.0000      -0.258812        -7.0426 
  78   2.0000      -0.253065        -6.8862 
  79   2.0000      -0.239267        -6.5108 
  80   2.0000      -0.233458        -6.3527 
  81   2.0000      -0.217622        -5.9218 
  82   2.0000      -0.217613        -5.9216 
  83   2.0000      -0.203756        -5.5445 
  84   2.0000      -0.185657        -5.0520 
  85   2.0000      -0.179883        -4.8949 
  86   2.0000      -0.168408        -4.5826 
  87   2.0000      -0.167752        -4.5648 
  88   2.0000      -0.158590        -4.3155 
  89   2.0000      -0.149437        -4.0664 
  90   2.0000      -0.122339        -3.3290 
  91   2.0000      -0.096556        -2.6274 
  92   2.0000      -0.080122        -2.1802 
  93   2.0000      -0.066425        -1.8075 
  94   0.0000      -0.035424        -0.9639 
  95   0.0000       0.031628         0.8606 
  96   0.0000       0.044509         1.2112 
  97   0.0000       0.111635         3.0378 
  98   0.0000       0.133210         3.6248 
  99   0.0000       0.154685         4.2092 
 100   0.0000       0.154949         4.2164 
 101   0.0000       0.157554         4.2873 
 102   0.0000       0.166351         4.5266 
 103   0.0000       0.167149         4.5483 
 104   0.0000       0.170598         4.6422 
 105   0.0000       0.172371         4.6905 
 106   0.0000       0.174044         4.7360 
 107   0.0000       0.181420         4.9367 
 108   0.0000       0.185171         5.0388 
 109   0.0000       0.190245         5.1768 
 110   0.0000       0.197120         5.3639 
 111   0.0000       0.198988         5.4147 
 112   0.0000       0.201584         5.4854 
 113   0.0000       0.208823         5.6824 
 114   0.0000       0.216110         5.8806 
 115   0.0000       0.217760         5.9256 
 116   0.0000       0.222556         6.0560 
 117   0.0000       0.224317         6.1040 
 118   0.0000       0.228867         6.2278 
 119   0.0000       0.234262         6.3746 
 120   0.0000       0.247323         6.7300 
 121   0.0000       0.252347         6.8667 
 122   0.0000       0.252519         6.8714 
 123   0.0000       0.265909         7.2358 
 124   0.0000       0.267852         7.2886 
 125   0.0000       0.272125         7.4049 
 126   0.0000       0.281875         7.6702 
 127   0.0000       0.282895         7.6980 
 128   0.0000       0.288843         7.8598 
 129   0.0000       0.291053         7.9200 
 130   0.0000       0.298863         8.1325 
 131   0.0000       0.304682         8.2908 
 132   0.0000       0.308132         8.3847 
 133   0.0000       0.312267         8.4972 
 134   0.0000       0.315222         8.5776 
 135   0.0000       0.316427         8.6104 
 136   0.0000       0.326713         8.8903 
 137   0.0000       0.326740         8.8911 
 138   0.0000       0.330551         8.9947 
 139   0.0000       0.340089         9.2543 
 140   0.0000       0.345454         9.4003 
 141   0.0000       0.353436         9.6175 
 142   0.0000       0.358902         9.7662 
 143   0.0000       0.359894         9.7932 
 144   0.0000       0.363946         9.9035 
 145   0.0000       0.364351         9.9145 
 146   0.0000       0.368155        10.0180 
 147   0.0000       0.374738        10.1971 
 148   0.0000       0.383445        10.4341 
 149   0.0000       0.386441        10.5156 
 150   0.0000       0.389492        10.5986 
 151   0.0000       0.392621        10.6838 
 152   0.0000       0.393365        10.7040 
 153   0.0000       0.397521        10.8171 
 154   0.0000       0.402748        10.9593 
 155   0.0000       0.412559        11.2263 
 156   0.0000       0.415377        11.3030 
 157   0.0000       0.420432        11.4405 
 158   0.0000       0.423295        11.5185 
 159   0.0000       0.423333        11.5195 
 160   0.0000       0.440601        11.9894 
 161   0.0000       0.445183        12.1140 
 162   0.0000       0.448146        12.1947 
 163   0.0000       0.449907        12.2426 
 164   0.0000       0.451978        12.2989 
 165   0.0000       0.453076        12.3288 
 166   0.0000       0.457767        12.4565 
 167   0.0000       0.464998        12.6532 
 168   0.0000       0.466659        12.6985 
 169   0.0000       0.468511        12.7488 
 170   0.0000       0.469615        12.7789 
 171   0.0000       0.470509        12.8032 
 172   0.0000       0.472682        12.8623 
 173   0.0000       0.476170        12.9573 
 174   0.0000       0.479878        13.0582 
 175   0.0000       0.481101        13.0914 
 176   0.0000       0.488027        13.2799 
 177   0.0000       0.492464        13.4006 
 178   0.0000       0.496054        13.4983 
 179   0.0000       0.498787        13.5727 
 180   0.0000       0.503757        13.7079 
 181   0.0000       0.503865        13.7109 
 182   0.0000       0.508687        13.8421 
 183   0.0000       0.513046        13.9607 
 184   0.0000       0.514378        13.9969 
 185   0.0000       0.519115        14.1258 
 186   0.0000       0.525147        14.2900 
 187   0.0000       0.531862        14.4727 
 188   0.0000       0.536621        14.6022 
 189   0.0000       0.546835        14.8801 
 190   0.0000       0.549316        14.9477 
 191   0.0000       0.551799        15.0152 
 192   0.0000       0.555557        15.1175 
 193   0.0000       0.556686        15.1482 
 194   0.0000       0.560071        15.2403 
 195   0.0000       0.564109        15.3502 
 196   0.0000       0.565683        15.3930 
 197   0.0000       0.577640        15.7184 
 198   0.0000       0.580937        15.8081 
 199   0.0000       0.592357        16.1188 
 200   0.0000       0.594105        16.1664 
 201   0.0000       0.597235        16.2516 
 202   0.0000       0.600730        16.3467 
 203   0.0000       0.606168        16.4947 
 204   0.0000       0.613481        16.6937 
 205   0.0000       0.620410        16.8822 
 206   0.0000       0.621433        16.9100 
 207   0.0000       0.623761        16.9734 
 208   0.0000       0.626586        17.0503 
 209   0.0000       0.632554        17.2127 
 210   0.0000       0.642783        17.4910 
 211   0.0000       0.649246        17.6669 
 212   0.0000       0.649506        17.6740 
 213   0.0000       0.655596        17.8397 
 214   0.0000       0.669736        18.2244 
 215   0.0000       0.671688        18.2776 
 216   0.0000       0.684056        18.6141 
 217   0.0000       0.693567        18.8729 
 218   0.0000       0.694199        18.8901 
 219   0.0000       0.700694        19.0669 
 220   0.0000       0.700899        19.0724 
 221   0.0000       0.704116        19.1600 
 222   0.0000       0.720527        19.6065 
 223   0.0000       0.724857        19.7244 
 224   0.0000       0.731462        19.9041 
 225   0.0000       0.736743        20.0478 
 226   0.0000       0.746963        20.3259 
 227   0.0000       0.750426        20.4201 
 228   0.0000       0.753061        20.4918 
 229   0.0000       0.754088        20.5198 
 230   0.0000       0.759453        20.6658 
 231   0.0000       0.759874        20.6772 
 232   0.0000       0.762294        20.7431 
 233   0.0000       0.769125        20.9290 
 234   0.0000       0.770452        20.9651 
 235   0.0000       0.773921        21.0595 
 236   0.0000       0.778571        21.1860 
 237   0.0000       0.782945        21.3050 
 238   0.0000       0.787801        21.4372 
 239   0.0000       0.798811        21.7367 
 240   0.0000       0.799406        21.7529 
 241   0.0000       0.806593        21.9485 
 242   0.0000       0.813021        22.1234 
 243   0.0000       0.815599        22.1936 
 244   0.0000       0.817574        22.2473 
 245   0.0000       0.826203        22.4821 
 246   0.0000       0.826773        22.4976 
 247   0.0000       0.832942        22.6655 
 248   0.0000       0.834564        22.7096 
 249   0.0000       0.838104        22.8060 
 250   0.0000       0.844562        22.9817 
 251   0.0000       0.850298        23.1378 
 252   0.0000       0.851970        23.1833 
 253   0.0000       0.858075        23.3494 
 254   0.0000       0.858965        23.3736 
 255   0.0000       0.867052        23.5937 
 256   0.0000       0.871340        23.7104 
 257   0.0000       0.880206        23.9516 
 258   0.0000       0.884150        24.0589 
 259   0.0000       0.885857        24.1054 
 260   0.0000       0.891258        24.2524 
 261   0.0000       0.901094        24.5200 
 262   0.0000       0.908289        24.7158 
 263   0.0000       0.914778        24.8924 
 264   0.0000       0.917066        24.9546 
 265   0.0000       0.929034        25.2803 
 266   0.0000       0.930747        25.3269 
 267   0.0000       0.939188        25.5566 
 268   0.0000       0.942262        25.6403 
 269   0.0000       0.943335        25.6694 
 270   0.0000       0.963076        26.2066 
 271   0.0000       0.970631        26.4122 
 272   0.0000       0.978396        26.6235 
 273   0.0000       0.978833        26.6354 
 274   0.0000       0.980253        26.6740 
 275   0.0000       0.989447        26.9242 
 276   0.0000       0.997661        27.1477 
 277   0.0000       1.005759        27.3681 
 278   0.0000       1.009872        27.4800 
 279   0.0000       1.014971        27.6188 
 280   0.0000       1.021114        27.7859 
 281   0.0000       1.036912        28.2158 
 282   0.0000       1.044297        28.4168 
 283   0.0000       1.052215        28.6322 
 284   0.0000       1.057147        28.7664 
 285   0.0000       1.059316        28.8254 
 286   0.0000       1.061140        28.8751 
 287   0.0000       1.068384        29.0722 
 288   0.0000       1.075429        29.2639 
 289   0.0000       1.076103        29.2823 
 290   0.0000       1.089943        29.6589 
 291   0.0000       1.090774        29.6815 
 292   0.0000       1.096369        29.8337 
 293   0.0000       1.097433        29.8627 
 294   0.0000       1.103243        30.0208 
 295   0.0000       1.115374        30.3509 
 296   0.0000       1.121275        30.5114 
 297   0.0000       1.121422        30.5154 
 298   0.0000       1.128489        30.7077 
 299   0.0000       1.130681        30.7674 
 300   0.0000       1.133410        30.8416 
 301   0.0000       1.153328        31.3836 
 302   0.0000       1.173230        31.9252 
 303   0.0000       1.179097        32.0849 
 304   0.0000       1.180034        32.1103 
 305   0.0000       1.184758        32.2389 
 306   0.0000       1.185294        32.2535 
 307   0.0000       1.207790        32.8656 
 308   0.0000       1.211113        32.9561 
 309   0.0000       1.218505        33.1572 
 310   0.0000       1.228859        33.4390 
 311   0.0000       1.232407        33.5355 
 312   0.0000       1.238241        33.6943 
 313   0.0000       1.240374        33.7523 
 314   0.0000       1.241418        33.7807 
 315   0.0000       1.247593        33.9487 
 316   0.0000       1.260412        34.2975 
 317   0.0000       1.266322        34.4584 
 318   0.0000       1.269693        34.5501 
 319   0.0000       1.277861        34.7724 
 320   0.0000       1.285355        34.9763 
 321   0.0000       1.295533        35.2532 
 322   0.0000       1.297587        35.3091 
 323   0.0000       1.297995        35.3202 
 324   0.0000       1.307249        35.5721 
 325   0.0000       1.323295        36.0087 
 326   0.0000       1.323834        36.0234 
 327   0.0000       1.330803        36.2130 
 328   0.0000       1.335927        36.3524 
 329   0.0000       1.339658        36.4539 
 330   0.0000       1.342403        36.5286 
 331   0.0000       1.344375        36.5823 
 332   0.0000       1.361551        37.0497 
 333   0.0000       1.363508        37.1029 
 334   0.0000       1.367135        37.2016 
 335   0.0000       1.369933        37.2778 
 336   0.0000       1.381053        37.5804 
 337   0.0000       1.397370        38.0244 
 338   0.0000       1.407739        38.3065 
 339   0.0000       1.418139        38.5895 
 340   0.0000       1.423337        38.7310 
 341   0.0000       1.434003        39.0212 
 342   0.0000       1.440721        39.2040 
 343   0.0000       1.449654        39.4471 
 344   0.0000       1.460000        39.7286 
 345   0.0000       1.463386        39.8208 
 346   0.0000       1.472931        40.0805 
 347   0.0000       1.484030        40.3825 
 348   0.0000       1.492246        40.6061 
 349   0.0000       1.496252        40.7151 
 350   0.0000       1.513700        41.1899 
 351   0.0000       1.521313        41.3970 
 352   0.0000       1.524126        41.4736 
 353   0.0000       1.525628        41.5145 
 354   0.0000       1.532046        41.6891 
 355   0.0000       1.533119        41.7183 
 356   0.0000       1.546201        42.0743 
 357   0.0000       1.546244        42.0754 
 358   0.0000       1.553289        42.2671 
 359   0.0000       1.555737        42.3337 
 360   0.0000       1.565814        42.6080 
 361   0.0000       1.575920        42.8830 
 362   0.0000       1.577323        42.9211 
 363   0.0000       1.582590        43.0645 
 364   0.0000       1.588741        43.2318 
 365   0.0000       1.591546        43.3082 
 366   0.0000       1.604297        43.6551 
 367   0.0000       1.607892        43.7530 
 368   0.0000       1.610548        43.8252 
 369   0.0000       1.617395        44.0116 
 370   0.0000       1.624968        44.2176 
 371   0.0000       1.629285        44.3351 
 372   0.0000       1.643965        44.7346 
 373   0.0000       1.647064        44.8189 
 374   0.0000       1.647123        44.8205 
 375   0.0000       1.652311        44.9617 
 376   0.0000       1.659816        45.1659 
 377   0.0000       1.664792        45.3013 
 378   0.0000       1.672999        45.5246 
 379   0.0000       1.673819        45.5469 
 380   0.0000       1.679687        45.7066 
 381   0.0000       1.691841        46.0373 
 382   0.0000       1.702431        46.3255 
 383   0.0000       1.704294        46.3762 
 384   0.0000       1.713401        46.6240 
 385   0.0000       1.715146        46.6715 
 386   0.0000       1.715771        46.6885 
 387   0.0000       1.721272        46.8382 
 388   0.0000       1.729103        47.0513 
 389   0.0000       1.730147        47.0797 
 390   0.0000       1.748373        47.5757 
 391   0.0000       1.750622        47.6368 
 392   0.0000       1.755127        47.7594 
 393   0.0000       1.763712        47.9931 
 394   0.0000       1.784368        48.5551 
[...]
     90       0.009705   0.008046  -0.360553
     91      -0.011811  -0.009894   0.442692
     92      -0.002758  -0.002298   0.102269
     93      -0.012734  -0.000976  -0.012707
     94       0.014239   0.001115   0.011784
     95       0.002869   0.000231   0.002455
     96      -0.529111  -0.038890  -0.019911
     97       0.424268   0.031256   0.015926
     98       0.029610   0.002180   0.001085
     99      -0.000648  -0.000052  -0.000029
    100      -0.000027  -0.000000   0.000014
    101      -0.000051  -0.000029   0.000021
    102      -0.000042   0.000101   0.000021
    103       0.000031  -0.000708   0.000003
    104      -0.000021   0.000031  -0.000009
    105      -0.000044   0.000007  -0.000001
    106       0.000022  -0.000003   0.000079
    107       0.000024   0.000021  -0.000003
    108      -0.000030   0.000018   0.000124
    109      -0.000005  -0.000027   0.000699
    110       0.000022   0.000012   0.000098


-----------
IR SPECTRUM
-----------

 Mode   freq       eps      Int      T**2         TX        TY        TZ
       cm**-1   L/(mol*cm) km/mol    a.u.
----------------------------------------------------------------------------
  6:     28.43   0.000264    1.33  0.002895  ( 0.030198 -0.006080  0.044118)
  7:     38.05   0.000121    0.61  0.000990  ( 0.002838 -0.000047 -0.031329)
  8:     92.57   0.000095    0.48  0.000320  (-0.003098  0.005989 -0.016570)
  9:    125.25   0.000330    1.67  0.000823  (-0.016018  0.014493 -0.018887)
 10:    132.50   0.000009    0.05  0.000022  (-0.002618  0.001912 -0.003395)
 11:    185.35   0.000133    0.67  0.000224  ( 0.009632  0.011339 -0.001489)
 12:    195.96   0.002747   13.88  0.004374  ( 0.059314  0.028924  0.004367)
 13:    201.01   0.000843    4.26  0.001309  (-0.027619 -0.022545 -0.006169)
 14:    207.18   0.001089    5.50  0.001640  (-0.004559  0.035165 -0.019570)
 15:    210.74   0.001311    6.62  0.001941  ( 0.038143  0.002935 -0.021844)
 16:    229.42   0.001046    5.28  0.001422  ( 0.016266 -0.005469 -0.033584)
 17:    238.37   0.000876    4.43  0.001146  ( 0.032336  0.004912 -0.008754)
 18:    247.93   0.001512    7.64  0.001903  (-0.039260  0.003286 -0.018730)
 19:    259.83   0.000404    2.04  0.000485  ( 0.015114 -0.012301  0.010243)
 20:    312.01   0.001400    7.07  0.001400  (-0.016295  0.000402 -0.033680)
 21:    321.90   0.001143    5.78  0.001108  (-0.028268 -0.002924 -0.017334)
 22:    331.43   0.003949   19.96  0.003718  ( 0.060509 -0.007477 -0.000926)
 23:    345.50   0.000362    1.83  0.000327  ( 0.010068 -0.004795  0.014233)
 24:    356.93   0.001500    7.58  0.001312  (-0.035179 -0.002677  0.008181)
 25:    376.03   0.002123   10.73  0.001762  ( 0.035479 -0.022330  0.002104)
 26:    393.41   0.003178   16.06  0.002521  ( 0.037313  0.033593 -0.000642)
 27:    414.09   0.000171    0.86  0.000129  ( 0.007872 -0.005502 -0.006062)
 28:    424.78   0.000859    4.34  0.000631  ( 0.024721 -0.003360 -0.002980)
 29:    425.01   0.000425    2.15  0.000312  (-0.007250 -0.016082 -0.000780)
 30:    458.14   0.002495   12.61  0.001699  ( 0.041038 -0.003393  0.001926)
 31:    515.35   0.004653   23.51  0.002818  (-0.051746 -0.004253 -0.011036)
 32:    610.42   0.000920    4.65  0.000470  ( 0.020469 -0.003233 -0.006405)
 33:    648.51   0.000267    1.35  0.000128  (-0.010593 -0.002474 -0.003148)
 34:    665.11   0.001964    9.92  0.000921  (-0.015989 -0.023187  0.011318)
 35:    679.27   0.000171    0.86  0.000078  ( 0.001609  0.006585  0.005696)
 36:    694.11   0.003482   17.60  0.001566  (-0.001139 -0.007400 -0.038852)
 37:    699.95   0.004108   20.76  0.001831  ( 0.011909  0.016407 -0.037686)
 38:    710.01   0.000271    1.37  0.000119  ( 0.006901 -0.008330  0.001475)
 39:    712.72   0.002710   13.69  0.001186  (-0.010276 -0.001322 -0.032849)
 40:    715.73   0.001814    9.17  0.000791  (-0.001435 -0.024447 -0.013827)
 41:    726.00   0.002836   14.33  0.001219  ( 0.017991 -0.020852  0.021459)
 42:    736.00   0.004801   24.26  0.002036  (-0.042860 -0.008883  0.010943)
 43:    747.41   0.003831   19.36  0.001599  (-0.015442 -0.036869 -0.001281)
 44:    748.32   0.001649    8.33  0.000688  ( 0.024419 -0.008975  0.003269)
 45:    763.43   0.002371   11.98  0.000969  ( 0.003762  0.001510 -0.030864)
 46:    773.50   0.000483    2.44  0.000195  ( 0.011610  0.002480  0.007355)
 47:    783.58   0.000446    2.26  0.000178  ( 0.003864  0.009919  0.008025)
 48:    799.62   0.000028    0.14  0.000011  ( 0.000868  0.003022 -0.001043)
 49:    806.97   0.000258    1.30  0.000100  ( 0.007855 -0.004294  0.004440)
 50:    819.13   0.000900    4.55  0.000343  ( 0.004077  0.013474  0.012025)
 51:    824.50   0.000651    3.29  0.000246  ( 0.003103 -0.007473  0.013449)
 52:    830.87   0.000481    2.43  0.000181  ( 0.000663  0.005978  0.012022)
 53:    833.46   0.000149    0.75  0.000056  ( 0.005834 -0.002598  0.003855)
 54:    836.03   0.007640   38.61  0.002852  ( 0.014881  0.019974 -0.047238)
 55:    849.96   0.025781  130.29  0.009466  (-0.023883  0.002284 -0.094287)
 56:    858.98   0.002148   10.86  0.000781  ( 0.027516 -0.004791 -0.000644)
 57:    867.67   0.000750    3.79  0.000270  (-0.014580 -0.007495  0.001008)
 58:    881.85   0.001843    9.31  0.000652  ( 0.019357 -0.014865 -0.007514)
 59:    885.59   0.001073    5.42  0.000378  ( 0.012154  0.014795 -0.003373)
 60:    899.71   0.001052    5.31  0.000365  (-0.007280  0.017444 -0.002730)
 61:    969.70   0.003011   15.22  0.000969  ( 0.004277 -0.029535 -0.008861)
 62:    995.00   0.006899   34.87  0.002164  (-0.018214 -0.042327  0.006365)
 63:   1014.72   0.002333   11.79  0.000717  ( 0.002967  0.026569 -0.001661)
 64:   1022.09   0.007483   37.82  0.002285  ( 0.045535  0.014418  0.001841)
 65:   1033.79   0.005201   26.28  0.001570  ( 0.028578 -0.026509 -0.007114)
 66:   1042.29   0.000074    0.37  0.000022  (-0.003786  0.000011  0.002791)
 67:   1058.20   0.001181    5.97  0.000348  (-0.012158 -0.011932 -0.007627)
 68:   1064.51   0.010237   51.73  0.003001  (-0.035591 -0.041639 -0.000669)
 69:   1067.44   0.010195   51.52  0.002981  (-0.039025  0.038177  0.000439)
 70:   1072.68   0.001861    9.41  0.000541  (-0.022160 -0.005387  0.004619)
 71:   1080.24   0.001931    9.76  0.000558  ( 0.003414  0.023326 -0.001451)
 72:   1101.08   0.001568    7.93  0.000445  (-0.019889 -0.004902 -0.004993)
 73:   1165.87   0.001236    6.24  0.000331  (-0.015201  0.007802 -0.006229)
 74:   1172.99   0.001118    5.65  0.000297  ( 0.011376  0.012911 -0.001097)
 75:   1188.93   0.000196    0.99  0.000051  (-0.005279  0.003877  0.002923)
 76:   1199.50   0.000719    3.63  0.000187  ( 0.013585  0.000892 -0.001280)
 77:   1230.88   0.004726   23.89  0.001198  ( 0.031432 -0.014483  0.000743)
 78:   1243.45   0.000462    2.34  0.000116  ( 0.009271  0.005204  0.001726)
 79:   1287.24   0.012301   62.16  0.002982  ( 0.054271 -0.003246 -0.005124)
 80:   1328.39   0.008637   43.65  0.002029  (-0.043620 -0.008594  0.007237)
 81:   1344.44   0.014378   72.66  0.003337  (-0.057767 -0.000074  0.000595)
 82:   1357.64   0.000768    3.88  0.000176  ( 0.004413 -0.012517  0.000543)
 83:   1373.51   0.003044   15.39  0.000692  (-0.011187 -0.023802  0.000209)
 84:   1382.61   0.003478   17.58  0.000785  (-0.023181 -0.015121  0.004371)
 85:   1387.30   0.003030   15.31  0.000681  (-0.024536 -0.007959  0.004011)
 86:   1410.32   0.003561   18.00  0.000788  (-0.027877  0.001530  0.002908)
 87:   1419.88   0.001437    7.26  0.000316  (-0.006651 -0.016441 -0.001153)
 88:   1422.82   0.008778   44.36  0.001925  ( 0.040211 -0.017135  0.003832)
 89:   1471.02   0.012029   60.79  0.002552  (-0.049467 -0.009710  0.003260)
 90:   1490.30   0.016033   81.02  0.003357  ( 0.055174  0.017660 -0.001105)
 91:   1530.68   0.005988   30.26  0.001221  (-0.029334  0.018301 -0.005029)
 92:   1555.10   0.003521   17.79  0.000707  (-0.024237 -0.008966 -0.006222)
 93:   1585.80   0.001730    8.74  0.000340  (-0.016196  0.002178 -0.008562)
 94:   1595.58   0.018079   91.36  0.003536  (-0.022403  0.055081  0.000044)
 95:   1604.69   0.009514   48.08  0.001850  ( 0.042218  0.007391 -0.003637)
 96:   1625.69   0.001335    6.74  0.000256  (-0.015327  0.004443 -0.001243)
 97:   1642.19   0.002680   13.54  0.000509  ( 0.021335  0.007245  0.001254)
 98:   1650.88   0.006307   31.87  0.001192  (-0.030520 -0.015234  0.005352)
 99:   2532.97   0.115426  583.31  0.014221  (-0.113717  0.035154  0.007291)
100:   3140.57   0.015648   79.08  0.001555  ( 0.033676  0.019630 -0.005955)
101:   3158.29   0.005845   29.54  0.000578  ( 0.015301 -0.018042  0.004235)
102:   3197.46   0.002609   13.18  0.000255  (-0.009851 -0.012324 -0.002387)
103:   3198.72   0.002452   12.39  0.000239  (-0.012172  0.009334  0.001979)
104:   3200.19   0.003100   15.66  0.000302  (-0.011228 -0.013211  0.001282)
105:   3220.88   0.001786    9.03  0.000173  (-0.010815 -0.007100 -0.002387)
106:   3223.10   0.001878    9.49  0.000182  ( 0.000465  0.013349  0.001854)
107:   3225.18   0.001591    8.04  0.000154  (-0.010596  0.006101  0.002109)
108:   3244.60   0.006864   34.69  0.000660  ( 0.025636 -0.000922  0.001467)
109:   3246.38   0.005754   29.08  0.000553  ( 0.003121  0.023278 -0.001252)
110:   3248.39   0.004775   24.13  0.000459  ( 0.001562 -0.021267 -0.001997)

* The epsilon (eps) is given for a Dirac delta lineshape.
** The dipole moment derivative (T) already includes vibrational overlap.

The first frequency considered to be a vibration is 6
The total number of vibrations considered is 105


--------------------------
THERMOCHEMISTRY AT 298.15K
--------------------------

Temperature         ... 298.15 K
Pressure            ... 1.00 atm
Total Mass          ... 369.49 AMU

Throughout the following assumptions are being made:
  (1) The electronic state is orbitally nondegenerate
  (2) There are no thermally accessible electronically excited states
  (3) Hindered rotations indicated by low frequency modes are not
      treated as such but are treated as vibrations and this may
      cause some error
  (4) All equations used are the standard statistical mechanics
      equations for an ideal gas
  (5) All vibrations are strictly harmonic

freq.      28.43  E(vib)   ...       0.55 
freq.      38.05  E(vib)   ...       0.54 
freq.      92.57  E(vib)   ...       0.47 
freq.     125.25  E(vib)   ...       0.43 
freq.     132.50  E(vib)   ...       0.42 
freq.     185.35  E(vib)   ...       0.37 
freq.     195.96  E(vib)   ...       0.36 
freq.     201.01  E(vib)   ...       0.35 
freq.     207.18  E(vib)   ...       0.34 
freq.     210.74  E(vib)   ...       0.34 
freq.     229.42  E(vib)   ...       0.32 
freq.     238.37  E(vib)   ...       0.32 
freq.     247.93  E(vib)   ...       0.31 
freq.     259.83  E(vib)   ...       0.30 
freq.     312.01  E(vib)   ...       0.25 
freq.     321.90  E(vib)   ...       0.25 
freq.     331.43  E(vib)   ...       0.24 
freq.     345.50  E(vib)   ...       0.23 
freq.     356.93  E(vib)   ...       0.22 
freq.     376.03  E(vib)   ...       0.21 
freq.     393.41  E(vib)   ...       0.20 
freq.     414.09  E(vib)   ...       0.19 
freq.     424.78  E(vib)   ...       0.18 
freq.     425.01  E(vib)   ...       0.18 
freq.     458.14  E(vib)   ...       0.16 
freq.     515.35  E(vib)   ...       0.13 
freq.     610.42  E(vib)   ...       0.10 
freq.     648.51  E(vib)   ...       0.08 
freq.     665.11  E(vib)   ...       0.08 
freq.     679.27  E(vib)   ...       0.08 
freq.     694.11  E(vib)   ...       0.07 
freq.     699.95  E(vib)   ...       0.07 
freq.     710.01  E(vib)   ...       0.07 
freq.     712.72  E(vib)   ...       0.07 
freq.     715.73  E(vib)   ...       0.07 
freq.     726.00  E(vib)   ...       0.06 
freq.     736.00  E(vib)   ...       0.06 
freq.     747.41  E(vib)   ...       0.06 
freq.     748.32  E(vib)   ...       0.06 
freq.     763.43  E(vib)   ...       0.06 
freq.     773.50  E(vib)   ...       0.05 
freq.     783.58  E(vib)   ...       0.05 
freq.     799.62  E(vib)   ...       0.05 
freq.     806.97  E(vib)   ...       0.05 
freq.     819.13  E(vib)   ...       0.05 
freq.     824.50  E(vib)   ...       0.04 
freq.     830.87  E(vib)   ...       0.04 
freq.     833.46  E(vib)   ...       0.04 
freq.     836.03  E(vib)   ...       0.04 
freq.     849.96  E(vib)   ...       0.04 
freq.     858.98  E(vib)   ...       0.04 
freq.     867.67  E(vib)   ...       0.04 
freq.     881.85  E(vib)   ...       0.04 
freq.     885.59  E(vib)   ...       0.04 
freq.     899.71  E(vib)   ...       0.03 
freq.     969.70  E(vib)   ...       0.03 
freq.     995.00  E(vib)   ...       0.02 
freq.    1014.72  E(vib)   ...       0.02 
freq.    1022.09  E(vib)   ...       0.02 
freq.    1033.79  E(vib)   ...       0.02 
freq.    1042.29  E(vib)   ...       0.02 
freq.    1058.20  E(vib)   ...       0.02 
freq.    1064.51  E(vib)   ...       0.02 
freq.    1067.44  E(vib)   ...       0.02 
freq.    1072.68  E(vib)   ...       0.02 
freq.    1080.24  E(vib)   ...       0.02 
freq.    1101.08  E(vib)   ...       0.02 
freq.    1165.87  E(vib)   ...       0.01 
freq.    1172.99  E(vib)   ...       0.01 
freq.    1188.93  E(vib)   ...       0.01 
freq.    1199.50  E(vib)   ...       0.01 
freq.    1230.88  E(vib)   ...       0.01 
freq.    1243.45  E(vib)   ...       0.01 
freq.    1287.24  E(vib)   ...       0.01 
freq.    1328.39  E(vib)   ...       0.01 
freq.    1344.44  E(vib)   ...       0.01 
freq.    1357.64  E(vib)   ...       0.01 
freq.    1373.51  E(vib)   ...       0.01 
freq.    1382.61  E(vib)   ...       0.01 
freq.    1387.30  E(vib)   ...       0.00 
freq.    1410.32  E(vib)   ...       0.00 
freq.    1419.88  E(vib)   ...       0.00 
freq.    1422.82  E(vib)   ...       0.00 
freq.    1471.02  E(vib)   ...       0.00 
freq.    1490.30  E(vib)   ...       0.00 
freq.    1530.68  E(vib)   ...       0.00 
freq.    1555.10  E(vib)   ...       0.00 
freq.    1585.80  E(vib)   ...       0.00 
freq.    1595.58  E(vib)   ...       0.00 
freq.    1604.69  E(vib)   ...       0.00 
freq.    1625.69  E(vib)   ...       0.00 
freq.    1642.19  E(vib)   ...       0.00 
freq.    1650.88  E(vib)   ...       0.00 
freq.    2532.97  E(vib)   ...       0.00 
freq.    3140.57  E(vib)   ...       0.00 
freq.    3158.29  E(vib)   ...       0.00 
freq.    3197.46  E(vib)   ...       0.00 
freq.    3198.72  E(vib)   ...       0.00 
freq.    3200.19  E(vib)   ...       0.00 
freq.    3220.88  E(vib)   ...       0.00 
freq.    3223.10  E(vib)   ...       0.00 
freq.    3225.18  E(vib)   ...       0.00 
freq.    3244.60  E(vib)   ...       0.00 
freq.    3246.38  E(vib)   ...       0.00 
freq.    3248.39  E(vib)   ...       0.00 

------------
INNER ENERGY
------------

The inner energy is: U= E(el) + E(ZPE) + E(vib) + E(rot) + E(trans)
    E(el)   - is the total energy from the electronic structure calculation
              = E(kin-el) + E(nuc-el) + E(el-el) + E(nuc-nuc)
    E(ZPE)  - the the zero temperature vibrational energy from the frequency calculation
    E(vib)  - the the finite temperature correction to E(ZPE) due to population
              of excited vibrational states
    E(rot)  - is the rotational thermal energy
    E(trans)- is the translational thermal energy

Summary of contributions to the inner energy U:
Electronic energy                ...  -2601.42127053 Eh
Zero point energy                ...      0.26541049 Eh     166.55 kcal/mol
Thermal vibrational correction   ...      0.01573078 Eh       9.87 kcal/mol
Thermal rotational correction    ...      0.00141627 Eh       0.89 kcal/mol
Thermal translational correction ...      0.00141627 Eh       0.89 kcal/mol
-----------------------------------------------------------------------
Total thermal energy                  -2601.13729672 Eh


Summary of corrections to the electronic energy:
(perhaps to be used in another calculation)
Total thermal correction                  0.01856332 Eh      11.65 kcal/mol
Non-thermal (ZPE) correction              0.26541049 Eh     166.55 kcal/mol
-----------------------------------------------------------------------
Total correction                          0.28397381 Eh     178.20 kcal/mol


--------
ENTHALPY
--------

The enthalpy is H = U + kB*T
                kB is Boltzmann's constant
Total free energy                 ...  -2601.13729672 Eh 
Thermal Enthalpy correction       ...      0.00094421 Eh       0.59 kcal/mol
-----------------------------------------------------------------------
Total Enthalpy                    ...  -2601.13635251 Eh


Note: Only C1 symmetry has been detected, increase convergence thresholds 
      if your molecule has a higher symmetry. Symmetry factor of 1.0 is   
      used for the rotational entropy correction. 
 

Note: Rotational entropy computed according to Herzberg 
Infrared and Raman Spectra, Chapter V,1, Van Nostrand Reinhold, 1945 
Point Group:  C1, Symmetry Number:   1  
Rotational constants in cm-1:     0.009143     0.008861     0.004551 

Vibrational entropy computed according to the QRRHO of S. Grimme
Chem.Eur.J. 2012 18 9955


-------
ENTROPY
-------

The entropy contributions are T*S = T*(S(el)+S(vib)+S(rot)+S(trans))
     S(el)   - electronic entropy
     S(vib)  - vibrational entropy
     S(rot)  - rotational entropy
     S(trans)- translational entropy
The entropies will be listed as multiplied by the temperature to get
units of energy

Electronic entropy                ...      0.00000000 Eh      0.00 kcal/mol
Vibrational entropy               ...      0.02640230 Eh     16.57 kcal/mol
Rotational entropy                ...      0.01650398 Eh     10.36 kcal/mol
Translational entropy             ...      0.02072225 Eh     13.00 kcal/mol
-----------------------------------------------------------------------
Final entropy term                ...      0.06362853 Eh     39.93 kcal/mol

In case the symmetry of your molecule has not been determined correctly
or in case you have a reason to use a different symmetry number we print 
out the resulting rotational entropy values for sn=1,12 :
 --------------------------------------------------------
|  sn= 1 | S(rot)=       0.01650398 Eh     10.36 kcal/mol|
|  sn= 2 | S(rot)=       0.01584952 Eh      9.95 kcal/mol|
|  sn= 3 | S(rot)=       0.01546669 Eh      9.71 kcal/mol|
|  sn= 4 | S(rot)=       0.01519506 Eh      9.54 kcal/mol|
|  sn= 5 | S(rot)=       0.01498438 Eh      9.40 kcal/mol|
|  sn= 6 | S(rot)=       0.01481223 Eh      9.29 kcal/mol|
|  sn= 7 | S(rot)=       0.01466669 Eh      9.20 kcal/mol|
|  sn= 8 | S(rot)=       0.01454061 Eh      9.12 kcal/mol|
|  sn= 9 | S(rot)=       0.01442940 Eh      9.05 kcal/mol|
|  sn=10 | S(rot)=       0.01432992 Eh      8.99 kcal/mol|
|  sn=11 | S(rot)=       0.01423993 Eh      8.94 kcal/mol|
|  sn=12 | S(rot)=       0.01415778 Eh      8.88 kcal/mol|
 --------------------------------------------------------


-------------------
GIBBS FREE ENERGY
-------------------

The Gibbs free energy is G = H - T*S

Total enthalpy                    ...  -2601.13635251 Eh 
Total entropy correction          ...     -0.06362853 Eh    -39.93 kcal/mol
-----------------------------------------------------------------------
Final Gibbs free energy         ...  -2601.19998104 Eh

For completeness - the Gibbs free energy minus the electronic energy
G-E(el)                           ...      0.22128949 Eh    138.86 kcal/mol


Timings for individual modules:

Sum of individual times         ...    30325.602 sec (= 505.427 min)
GTO integral calculation        ...      339.005 sec (=   5.650 min)   1.1 %
SCF iterations                  ...    23639.787 sec (= 393.996 min)  78.0 %
SCF Gradient evaluation         ...     2039.534 sec (=  33.992 min)   6.7 %
Geometry relaxation             ...       62.036 sec (=   1.034 min)   0.2 %
Analytical frequency calculation...     4245.240 sec (=  70.754 min)  14.0 %
                             ****ORCA TERMINATED NORMALLY****
TOTAL RUN TIME: 0 days 8 hours 40 minutes 30 seconds 946 msec
